208
energy=-829.9127452 pbc="T T T" Lattice="16.026082 0.0 0.0 0.0 16.1 0.0 0.0 0.0 16.425367" Properties=species:S:1:pos:R:3:Z:I:1:force:R:3
Li 11.0025 13.18964 2.94742 3 0.186067 0.324326 -0.361388
Li 9.30362 10.67987 0.04896 3 0.024106 0.243968 0.062811
Li 10.81349 10.33177 3.37657 3 -0.237914 0.126057 -0.053376
Li 13.15758 15.7469 0.32036 3 0.106973 0.092159 0.474798
Li 9.34468 12.62902 4.74908 3 -0.136885 0.206815 -0.22752
Li 14.41329 12.09687 14.99582 3 0.055345 0.188311 0.276522
Li 3.88291 0.82021 0.99694 3 -0.042716 -0.144788 -0.226102
Li 3.51189 13.46375 4.78429 3 -0.0641 0.362233 -0.292998
Li 1.66838 0.38732 5.72599 3 0.09271 -0.330561 0.01713
Li 3.80284 12.07923 0.7048 3 0.014227 0.151764 0.253351
Li 1.58611 11.26237 14.83608 3 -0.184043 0.050079 0.185165
Li 5.20839 13.41938 6.8951 3 0.280823 -0.036047 -0.028962
Li 5.9426 7.92843 9.98715 3 0.006562 -0.024341 0.092403
Li 8.40272 12.93929 8.56163 3 0.092964 -0.025377 0.135123
Li 11.87538 13.33778 12.66095 3 0.025628 0.289948 -0.110475
Li 5.6405 10.25414 7.13072 3 0.155047 0.060038 -0.150646
Li 11.36417 8.41338 12.57133 3 -0.051014 -0.279497 -0.33563
Li 2.93608 11.44878 10.16045 3 0.070752 0.057181 -0.03586
Li 15.19932 14.95957 14.21724 3 0.157302 -0.105921 -0.044306
Li 14.98237 7.77488 15.97478 3 -0.147916 -0.043866 -0.178519
Li 2.81336 7.30072 11.17077 3 -0.309734 0.420889 0.135425
Li 7.89407 14.46908 14.38025 3 -0.205457 0.007527 -0.261548
Li 15.86514 10.36498 12.44891 3 -0.047058 0.061642 -0.026723
Li 13.51755 9.27848 14.00004 3 0.199244 -0.250157 -0.077641
Li 5.74938 7.92622 14.24095 3 0.214325 0.020471 0.136341
Li 1.25236 8.32558 14.27264 3 0.060651 -0.152976 0.021719
Li 3.83204 9.88767 13.44203 3 -0.302656 -0.396269 0.266208
Li 6.6303 11.0492 15.09002 3 -0.276952 -0.238055 -0.064504
Li 1.10111 4.93236 11.59199 3 0.395867 0.788895 -0.533018
Li 8.1282 10.55603 12.29651 3 0.005038 -0.063226 0.112971
Li 4.04969 4.49724 0.80039 3 -0.074333 -0.267646 -0.042996
Li 5.85818 2.31195 2.44189 3 0.1562 -0.095042 0.486035
Li 7.27945 1.02377 0.03332 3 0.380005 -0.026288 -0.102113
Li 6.98258 5.01454 0.97946 3 -0.026026 0.032794 -0.202054
Li 10.51579 6.1545 3.4622 3 -0.394356 0.105444 -0.040999
Li 1.13107 2.69508 2.30925 3 0.37388 -0.199139 -0.432713
Li 13.01238 1.72509 7.97342 3 -0.377522 0.104091 -0.157922
Li 13.09626 4.79944 10.93998 3 0.045159 0.048507 -0.178075
Li 10.10239 0.07068 15.24433 3 -0.294891 0.162309 -0.044194
Li 9.67349 5.02373 11.58956 3 0.015976 -0.170608 0.088074
Li 13.92936 2.94769 13.63287 3 -0.23272 -0.283696 -0.174713
Li 11.94119 5.29714 14.16972 3 0.096157 0.120625 -0.204162
Li 7.62715 3.53298 5.65536 3 0.086668 -0.279609 0.108118
Li 3.95631 0.358 12.2352 3 -0.291 -0.018637 -0.020525
Li 5.07894 1.54738 5.70916 3 -0.042264 -0.158654 0.238505
Li 15.75188 2.98294 10.40722 3 0.326663 -0.092012 -0.040517
Li 6.77569 0.62835 8.5639 3 -0.320949 -0.016196 -0.37118
Li 15.12196 5.14316 6.75199 3 -0.086974 -0.016088 0.235875
Li 5.98781 6.86235 6.47423 3 0.388 -0.152155 -0.305773
Li 0.29494 3.41595 4.63394 3 -0.297221 0.357224 0.212145
Li 2.85243 4.23303 5.13669 3 -0.04833 0.040388 -0.267588
Li 15.62528 6.47237 3.68347 3 0.10431 -0.179813 -0.053136
Li 2.40433 7.50197 5.51897 3 -0.322762 0.186479 -0.660148
Li 4.50323 7.8004 3.25985 3 0.248785 0.076888 -0.115514
Li 12.6884 9.93866 5.14715 3 -0.331288 0.296792 0.204879
Li 1.8291 9.55175 1.38224 3 0.142295 0.134953 -0.323788
Li 12.97921 7.52688 2.02935 3 -0.010851 0.06555 -0.263432
Li 0.87747 11.5242 4.74839 3 -0.072164 -0.210369 0.142058
Li 15.07322 10.54885 1.00939 3 0.10994 0.294714 -0.283184
Li 1.94089 6.44879 7.7869 3 -0.132163 -0.220414 0.218812
Li 6.89613 0.38198 12.39074 3 -0.191875 -0.262291 -0.330305
Li 5.1332 15.47146 15.02832 3 -0.07947 0.096205 0.372162
Li 5.79397 14.61137 10.55757 3 -0.021823 -0.171914 0.10754
Li 1.2474 13.48552 11.84515 3 -0.174288 -0.264464 0.02332
Li 3.33374 13.79009 14.09493 3 -0.108207 0.214312 -0.123234
Li 4.938 12.17422 12.027 3 0.354131 0.133045 0.157325
Li 0.78891 13.38084 7.38036 3 0.79313 0.054214 0.256387
Li 14.24297 14.97139 7.96425 3 0.174344 -0.810783 0.155011
Li 13.72001 13.15439 4.58843 3 0.162405 0.089806 -0.249358
Li 14.3922 11.86939 8.71705 3 0.086227 0.000761 -0.177181
Li 12.55069 12.6931 7.01004 3 0.236544 -0.331874 -0.082991
Li 12.15115 1.4729 11.63703 3 0.156357 -0.111246 -0.321175
Li 0.07401 5.44489 14.18265 3 -0.129953 0.298867 -0.225999
Li 6.19034 2.85216 14.37949 3 0.083638 0.020396 0.042121
Li 1.98336 2.79921 13.82235 3 0.159259 -0.14869 0.075473
Li 4.48674 5.50424 12.79041 3 -0.13872 -0.147362 0.153791
Li 1.74788 14.21065 1.07561 3 -0.574016 0.023329 0.094186
Li 3.24116 7.38833 15.7334 3 -0.224367 0.156444 -0.122812
Li 9.44765 6.95885 6.649 3 -0.030235 0.217537 -0.027563
Li 8.35397 9.11766 2.05678 3 -0.116166 -0.003488 0.191932
Li 11.20203 3.6724 5.18485 3 0.578072 -0.20815 0.00577
Li 8.44317 9.25708 5.03214 3 0.045281 0.301112 0.051944
Li 6.97257 11.55453 4.04472 3 -0.138033 0.164733 -0.074251
Li 12.3698 6.92374 5.79273 3 -0.341803 0.325154 0.370158
Li 13.29773 0.5933 4.10074 3 0.068459 0.825609 0.519019
Li 8.30761 13.88369 2.12055 3 -0.096237 -0.236821 0.099507
Li 10.47639 10.77487 6.65422 3 0.239019 -0.249634 -0.007125
Li 11.40059 14.99765 5.27347 3 -0.287788 -0.056987 -0.212058
Li 7.57323 0.24028 4.13925 3 0.45155 -0.107743 0.008002
Li 8.78386 15.23675 6.15196 3 0.186382 -0.054311 0.005602
Li 6.33501 3.54918 11.54527 3 -0.158837 -0.023714 0.641167
Li 13.15044 8.49074 9.31102 3 0.118397 0.189842 -0.102049
Li 9.43241 1.63599 12.13643 3 -0.113292 0.169029 -0.290086
Li 3.41869 3.05623 10.61156 3 0.118548 -0.107681 -0.276914
Li 9.25696 1.82962 7.70899 3 0.263515 -0.597041 0.081063
Li 9.98223 3.06517 14.31811 3 -0.11135 -0.07923 -0.157077
P 11.29232 14.96281 9.29969 15 -1.613946 0.146977 0.024471
P 10.14618 11.11906 10.29718 15 -0.494347 -0.565938 -1.083351
P 5.56117 4.57551 3.77832 15 -0.553083 0.837406 -0.999734
P 3.38755 15.29258 8.54028 15 0.056795 -0.013041 -0.671934
P 14.89037 9.103 6.12584 15 0.751646 0.136175 -0.034942
P 14.53632 7.07062 11.88107 15 0.249156 0.645871 0.035423
P 8.3467 5.24107 9.2638 15 -0.595511 -0.357894 -0.778765
P 1.57457 9.76057 8.55431 15 0.458027 -0.982006 -0.374665
P 9.71069 1.77634 4.15864 15 0.187427 -0.389334 -0.706302
P 12.50175 0.05878 13.98573 15 -0.025831 0.177975 -0.079616
P 14.58563 13.65375 1.87707 15 0.10654 -0.15318 0.095357
P 5.51435 8.44042 0.80829 15 -0.736987 0.721327 -0.492188
P 13.63811 4.13869 3.08678 15 -0.772951 -0.617998 0.386736
P 10.79808 7.52122 16.16855 15 0.928274 -1.725202 1.211874
P 4.26959 10.68625 4.35858 15 0.028959 -0.272506 -0.641193
P 7.99492 6.55256 13.7705 15 -1.16837 -0.006635 0.720409
S 11.19668 0.91787 9.35565 16 -0.0939 -0.392432 -0.015955
S 10.75599 14.07601 7.49997 16 -0.114916 0.518657 0.233322
S 9.57746 14.16845 10.60053 16 0.380332 -0.003774 -0.632761
S 12.88209 14.18826 10.1407 16 0.993157 -0.409128 0.186661
S 10.9768 10.90014 12.08509 16 -0.041547 0.014267 0.36932
S 11.58722 12.10819 4.91944 16 0.646179 -0.455817 0.251244
S 8.09409 15.52868 10.23821 16 -0.163458 0.057044 0.3243
S 8.15533 11.11326 7.02389 16 -0.169943 0.187686 -0.456128
S 6.7353 6.46614 3.10482 16 -0.688493 -1.10687 -0.180018
S 5.54675 4.66035 5.80705 16 -0.14235 -0.60801 0.361739
S 2.07933 2.13107 4.34041 16 0.607628 -0.257187 -0.129138
S 3.75889 5.51781 3.07237 16 0.264021 -0.615731 0.162561
S 3.96605 15.46216 6.46841 16 -0.410089 0.165009 0.460817
S 4.45593 0.69528 9.53792 16 -0.238201 -0.477345 0.249521
S 4.24728 13.44739 9.0258 16 -0.260824 0.173472 0.543116
S 1.3624 15.36905 8.78877 16 0.662475 0.050578 -0.215806
S 14.28166 7.45039 7.18654 16 -0.119665 -0.069763 -0.165611
S 10.73455 8.54574 4.98987 16 0.359769 -0.00125 0.683392
S 0.99903 9.46644 6.36679 16 -0.915889 0.165645 -0.325488
S 10.79828 5.06533 6.93895 16 1.319654 0.49744 0.017916
S 13.81328 6.85823 13.87435 16 -0.095665 -0.528031 -0.318318
S 0.5942 7.30204 12.31078 16 -0.143425 -0.736729 0.343175
S 13.8626 9.11868 11.4981 16 0.00349 -0.376399 0.322467
S 10.86963 7.68485 9.10651 16 0.121656 0.003089 -0.204305
S 9.40107 9.09905 9.4414 16 0.08418 0.931501 0.473365
S 7.425 6.89301 8.3609 16 0.400698 -0.245839 0.200565
S 6.72005 3.80671 9.35729 16 0.076341 0.214676 -0.490971
S 9.12534 4.10932 7.4714 16 -0.743324 0.490176 0.751273
S 0.65528 11.44619 9.24286 16 -0.330314 0.617311 0.541408
S 5.65268 10.39309 9.49878 16 -0.316379 -0.084318 0.380653
S 0.82881 8.03845 9.35962 16 0.393858 0.132696 0.016621
S 2.67351 11.71129 12.71077 16 -0.341942 0.240688 -0.019452
S 7.40758 1.09162 6.36921 16 -0.386409 0.126998 -0.210526
S 11.23104 1.62001 2.44488 16 0.243068 0.112366 0.165856
S 11.05724 1.30282 5.7782 16 -0.564948 0.393608 -0.112007
S 9.28151 3.79922 3.90484 16 -0.209916 0.294581 0.192769
S 12.1216 1.52464 15.44392 16 0.269678 -0.49272 -0.086365
S 10.8207 15.91382 12.8532 16 0.296433 -0.469545 -0.056835
S 12.66727 14.31149 14.92224 16 -0.251242 0.196798 -0.133456
S 14.12785 0.57774 12.83973 16 -0.275379 -0.025948 0.39275
S 13.11838 15.00361 2.75048 16 -0.292675 -1.026088 -0.517858
S 14.64957 9.34422 3.89183 16 0.212984 0.11673 0.31759
S 15.47111 14.87397 0.36708 16 0.309699 0.031617 0.089409
S 13.33006 12.1814 0.95774 16 -0.012378 -0.023711 -0.130027
S 5.90461 9.34325 4.60745 16 -0.538266 0.612542 0.256302
S 7.29485 9.10126 16.3185 16 0.123294 -0.049811 -0.018274
S 3.92274 9.74185 16.16338 16 0.356906 -0.05697 0.57638
S 5.25897 6.59639 16.27719 16 0.569839 -0.646374 0.294425
S 13.87263 2.86177 4.59744 16 -0.05896 0.199341 0.860703
S 11.9551 3.46771 1.88411 16 -0.519382 -0.121987 -0.252392
S 15.31915 4.26614 2.08909 16 0.783219 0.862711 -0.882028
S 12.89274 5.96828 3.77427 16 0.646457 -0.195229 -0.178681
S 10.53443 8.09693 1.74352 16 -0.156419 -0.05405 -0.464799
S 9.39344 5.94719 15.42523 16 0.608178 0.470941 0.141406
S 12.47233 6.24157 16.35313 16 -0.582562 0.46161 0.438543
S 11.12837 9.09185 15.02254 16 -0.302953 0.934455 -0.503231
S 2.71055 9.51776 3.53929 16 0.583019 0.014046 0.992292
S 4.83122 12.1744 3.04423 16 -0.163258 -0.0547 0.424978
S 7.49334 13.00133 6.1303 16 -0.24134 -0.653616 0.303283
S 3.71268 11.57747 6.16337 16 0.263455 -0.757237 -0.285793
S 7.92708 4.49692 13.20071 16 0.201739 0.033269 -0.009705
S 11.23204 6.43199 10.67516 16 0.674103 0.062505 0.093952
S 8.1048 1.19785 14.03823 16 0.007958 0.267729 0.811053
S 8.89866 7.74589 12.46517 16 0.275859 0.458803 -0.576848
S 8.82923 11.42262 2.64627 16 0.161382 -0.204515 -0.397085
S 3.69871 14.51312 0.06266 16 0.382166 0.124925 -0.362146
S 7.01543 11.73935 10.31641 16 0.341803 0.074446 0.01923
S 15.54825 9.94907 15.01174 16 0.226775 0.311645 -0.016123
S 3.56252 7.56881 13.49947 16 -0.467808 -0.249489 -0.697692
S 5.95754 2.88359 0.34739 16 -0.228925 0.300015 -0.234912
S 11.65708 3.60325 12.43264 16 -0.312844 0.210596 0.435977
S 4.30418 2.93139 12.71742 16 -0.022883 -0.198104 0.289775
S 0.93377 5.6106 5.50305 16 0.095138 0.157838 0.255802
S 15.4459 8.43886 2.10144 16 0.008881 -0.219212 0.290257
S 5.46734 14.55722 13.06877 16 0.296382 0.036968 -0.850258
S 14.86049 13.02596 6.60525 16 -1.298264 -0.214111 0.359283
S 15.98397 3.51255 12.68763 16 -0.107976 -0.203581 0.741178
S 8.29314 6.95364 4.29628 16 0.368385 0.380199 0.209847
S 9.46715 14.83071 3.82928 16 0.08627 0.089387 0.274011
S 7.72742 2.09111 10.11822 16 0.139182 0.288841 0.026348
Cl 8.51599 14.99932 0.12919 17 -0.072378 0.129657 0.016752
Cl 5.92517 16.04154 2.67224 17 -0.321069 0.555249 -0.045635
Cl 4.00848 7.49536 7.03816 17 -0.499234 0.323847 0.519859
Cl 8.53678 12.12303 14.56353 17 0.090913 -0.07656 -0.069376
Cl 5.94434 10.08317 13.00469 17 0.632754 0.195959 0.240855
Cl 2.27517 2.75781 0.07591 17 0.019688 -0.046922 0.187642
Cl 14.09355 3.39417 8.93116 17 0.066593 0.613361 0.199652
Cl 1.78077 4.03599 9.41221 17 -0.391214 0.157817 0.158852
Cl 1.48526 11.88197 1.18303 17 -0.331297 -0.362471 -0.342249
Cl 1.31555 13.7021 4.48499 17 0.169613 0.405456 -0.132104
Cl 1.6443 15.45285 12.74768 17 0.396817 0.315903 0.342953
Cl 15.03233 12.91751 12.81648 17 0.127309 -0.262438 -0.056233
Cl 1.06657 6.80343 16.17713 17 -0.143024 -0.220629 -0.082966
Cl 12.43006 10.6449 8.42249 17 -0.061178 0.211866 -0.233788
Cl 14.1755 0.48594 6.60247 17 0.322398 0.150892 -0.442509
Cl 4.54316 5.99774 10.56825 17 0.186671 0.238036 -0.31374
208
energy=-829.99761496 pbc="T T T" Lattice="16.026082 0.0 0.0 0.0 16.1 0.0 0.0 0.0 16.425367" Properties=species:S:1:pos:R:3:Z:I:1:force:R:3
Li 11.01817 13.16788 2.96674 3 0.123456 0.409804 -0.335241
Li 9.30084 10.7286 0.07597 3 0.008075 0.206562 -0.047903
Li 10.71829 10.29462 3.33051 3 0.076967 -0.035187 0.164177
Li 13.16732 15.73088 0.36905 3 0.074174 0.076898 0.219993
Li 9.32432 12.66121 4.695 3 -0.234074 0.122401 0.039493
Li 14.35936 12.17847 14.97162 3 0.185072 0.049538 0.175457
Li 3.89272 0.75461 0.89576 3 -0.108234 0.037973 -0.025096
Li 3.5014 13.38975 4.69216 3 0.018876 0.501964 -0.084344
Li 1.77215 0.23946 5.83846 3 -0.073053 0.090694 -0.271125
Li 3.84409 12.1122 0.67221 3 -0.052016 0.091328 0.294909
Li 1.55595 11.18105 14.91757 3 -0.070276 0.148361 0.000717
Li 5.22807 13.44821 6.88819 3 0.118875 -0.006527 0.048967
Li 5.99955 7.86995 9.96738 3 -0.18278 0.080419 0.162502
Li 8.39671 12.87765 8.55609 3 0.129237 0.074089 0.162326
Li 11.89926 13.42484 12.64405 3 0.003809 0.190412 -0.221919
Li 5.67899 10.3129 7.11644 3 0.147261 -0.037525 -0.190524
Li 11.40711 8.50808 12.5845 3 -0.118208 -0.365051 -0.386164
Li 2.90459 11.37837 10.15797 3 0.173173 0.136187 0.039182
Li 15.21136 14.93782 14.26772 3 0.120575 -0.083442 -0.178883
Li 14.91094 7.76424 15.94995 3 -0.028019 -0.030762 -0.026908
Li 2.78868 7.2969 11.18355 3 -0.121389 0.35022 0.066187
Li 7.95271 14.47589 14.39153 3 -0.272634 0.021823 -0.373626
Li 15.81177 10.17875 12.49139 3 0.062616 0.196191 -0.078077
Li 13.52937 9.2567 14.01779 3 0.091111 -0.224916 -0.116589
Li 5.76348 7.88973 14.31682 3 0.119704 0.138113 0.010097
Li 1.20193 8.29258 14.32024 3 0.153516 -0.198368 -0.143065
Li 3.82442 9.89591 13.49143 3 -0.080512 -0.523464 0.200719
Li 6.5644 11.09485 15.04401 3 -0.159519 -0.326797 0.105335
Li 1.05247 4.98664 11.54763 3 0.315429 0.495324 -0.296242
Li 8.14802 10.44115 12.32759 3 0.14555 -0.004431 -0.002207
Li 4.05366 4.53321 0.76642 3 -0.045164 -0.343174 -0.02162
Li 5.7596 2.31816 2.46538 3 0.168786 0.158984 -0.001677
Li 7.3738 1.11032 16.35246 3 0.242306 0.100008 -0.020771
Li 6.99207 4.98244 0.9463 3 0.001569 0.087152 -0.102652
Li 10.47196 6.12426 3.35631 3 -0.278584 0.087693 0.097942
Li 1.11756 2.6595 2.20703 3 0.442898 -0.26633 -0.08084
Li 12.97409 1.70279 7.83247 3 -0.389075 0.562101 0.230335
Li 13.17581 4.83607 10.9169 3 -0.085217 0.01277 -0.157227
Li 10.15654 0.13375 15.23878 3 -0.576274 0.078065 -0.05932
Li 9.79561 5.09881 11.58003 3 -0.447379 -0.452923 0.217747
Li 13.91403 2.95165 13.52074 3 -0.14576 -0.275108 -0.095472
Li 11.94696 5.24234 14.16664 3 0.097054 0.227768 -0.128875
Li 7.65984 3.41506 5.65433 3 -0.157326 -0.091434 0.004418
Li 3.89928 0.33893 12.22009 3 -0.165392 -0.006591 -0.007468
Li 5.02605 1.45827 5.82002 3 0.114119 0.042166 0.173
Li 15.70723 3.03833 10.4677 3 0.355163 -0.205755 -0.183534
Li 6.74527 0.55032 8.5366 3 -0.152163 0.086946 -0.277903
Li 15.2239 5.1957 6.75433 3 -0.481913 -0.129537 0.504528
Li 5.99376 6.80053 6.46225 3 0.331645 0.025155 -0.133662
Li 0.21049 3.41199 4.56094 3 0.057708 0.214905 0.183795
Li 2.73323 4.23332 5.03733 3 0.254235 0.036029 -0.173024
Li 15.54531 6.46091 3.82653 3 0.065119 -0.04514 -0.261573
Li 2.30273 7.51821 5.46165 3 0.172954 0.268636 -0.327509
Li 4.50228 7.76698 3.26831 3 0.26861 0.216303 -0.019732
Li 12.61838 9.84249 5.1283 3 -0.154263 0.394392 0.168123
Li 1.90118 9.60746 1.33426 3 0.113306 -0.00884 -0.125795
Li 12.91381 7.47915 2.0265 3 0.107977 0.241851 -0.322744
Li 0.87868 11.53798 4.81234 3 -0.13928 -0.206856 0.201492
Li 15.11961 10.63766 1.0102 3 0.228571 -0.036152 -0.226123
Li 1.86346 6.3998 7.74262 3 0.116697 -0.113081 0.256421
Li 6.8624 0.29159 12.3859 3 0.15672 0.122213 -0.004834
Li 5.06133 15.46381 15.17058 3 0.574265 0.108295 -0.663824
Li 5.84661 14.54749 10.63854 3 -0.091928 -0.170584 -0.10739
Li 1.29059 13.35923 11.89418 3 -0.291614 0.046056 0.042632
Li 3.26019 13.84181 14.16987 3 -0.071106 0.148703 -0.401622
Li 4.93972 12.18015 12.08974 3 0.279987 0.162815 0.097152
Li 0.88387 13.3752 7.42434 3 0.308282 -0.038504 0.111187
Li 14.15274 14.8429 7.94139 3 0.180428 -0.2926 0.007395
Li 13.69373 13.09498 4.54697 3 0.205089 0.061822 -0.088334
Li 14.40136 11.86673 8.72226 3 0.00714 0.022214 -0.196929
Li 12.56119 12.68097 6.97114 3 0.093026 -0.366636 -0.011824
Li 12.19535 1.41689 11.64164 3 0.120293 0.004638 -0.427513
Li 0.0964 5.46584 14.30411 3 -0.102428 0.096174 -0.421693
Li 6.11185 2.94252 14.28373 3 0.225169 -0.127831 0.265235
Li 1.96458 2.7954 13.84989 3 0.252521 -0.132886 0.064924
Li 4.61528 5.52779 12.74483 3 -0.292926 -0.18089 0.304543
Li 1.75599 14.18688 1.03919 3 -0.829071 0.079442 0.207218
Li 3.25659 7.38878 15.67029 3 -0.260739 0.071317 0.172207
Li 9.44837 6.99811 6.6444 3 -0.019606 0.045798 0.006826
Li 8.30055 9.13867 1.97003 3 0.003994 -0.065942 0.520597
Li 11.20107 3.71105 5.18743 3 0.562787 -0.134717 0.135646
Li 8.40467 9.34138 5.00724 3 0.107072 0.098998 0.03023
Li 6.90498 11.54238 3.96231 3 0.051555 0.111406 0.139213
Li 12.38116 6.98246 5.81236 3 -0.439719 0.023292 0.209539
Li 13.33156 0.67352 4.26353 3 -0.021453 0.175909 0.194675
Li 8.31142 13.74119 2.05668 3 0.093189 0.169049 0.249945
Li 10.45766 10.65265 6.69059 3 0.249842 -0.09867 -0.045358
Li 11.34136 14.96394 5.23844 3 -0.124799 0.00231 -0.075332
Li 7.48267 0.23279 4.12999 3 0.821843 -0.110745 0.321672
Li 8.83822 15.11481 6.16018 3 -0.119123 0.207982 0.067352
Li 6.33593 3.50734 11.60306 3 -0.137121 -0.052481 0.322577
Li 13.14792 8.48939 9.32048 3 0.125537 0.188587 -0.184643
Li 9.43484 1.70512 12.10262 3 -0.204823 -0.016941 -0.24126
Li 3.31773 3.0003 10.64261 3 0.239183 -0.133219 -0.214839
Li 9.34016 1.77326 7.76049 3 0.051835 -0.235344 -0.007042
Li 10.01542 3.10782 14.14691 3 -0.289436 -0.102105 0.154137
P 11.26006 14.94254 9.30309 15 -0.824836 -0.232422 0.440115
P 10.10357 11.09397 10.27602 15 -0.252907 -0.303915 -0.543253
P 5.57677 4.63629 3.76934 15 -0.355801 0.33218 -0.365932
P 3.3702 15.29166 8.58833 15 0.602624 0.388671 -0.865757
P 14.92124 9.07045 6.10989 15 0.257258 0.343732 0.09738
P 14.54313 7.05526 11.92039 15 0.085693 0.584187 -0.533207
P 8.34576 5.20994 9.27501 15 -0.380676 -0.007903 -0.883641
P 1.5719 9.74963 8.55738 15 0.192124 -0.62668 -0.242089
P 9.74103 1.78001 4.19495 15 -0.220508 -0.480414 -1.16071
P 12.50999 0.08291 14.00197 15 0.516362 -0.240837 -0.589022
P 14.54603 13.6646 1.91382 15 0.793474 -0.071674 -0.442365
P 5.49154 8.44955 0.82706 15 -0.551643 0.897089 -0.41427
P 13.6241 4.14656 3.10434 15 -0.60749 -0.426604 -0.175809
P 10.82413 7.50809 16.16142 15 0.318133 -0.862479 0.975372
P 4.2382 10.68591 4.31878 15 0.664541 -0.466706 0.27091
P 7.9785 6.61696 13.76679 15 -0.592142 -0.702271 0.402026
S 11.21948 0.86084 9.30641 16 -0.099554 0.325858 0.175386
S 10.72029 14.06479 7.54791 16 -0.007371 0.098325 -0.521264
S 9.56032 14.18542 10.56247 16 1.060285 -0.824895 -0.01802
S 12.88897 14.1763 10.14383 16 0.500259 -0.274783 -0.016322
S 10.96737 10.90326 12.08704 16 -0.320511 0.12415 -0.115894
S 11.52901 12.0562 4.93117 16 0.852362 -0.44132 0.187306
S 8.1117 15.49546 10.23926 16 -0.992454 0.769028 0.066764
S 8.14224 11.12461 7.01745 16 -0.180289 -0.021408 -0.532848
S 6.70091 6.49759 3.11861 16 -0.276644 -0.991035 -0.088332
S 5.54171 4.65276 5.82854 16 -0.016789 -0.809061 -0.260249
S 2.07008 2.11652 4.37855 16 0.19952 -0.362362 -0.243294
S 3.792 5.53396 3.04189 16 -0.182099 -0.562432 0.093974
S 3.95798 15.47737 6.49119 16 -0.307107 -0.1046 0.584698
S 4.48515 0.69882 9.55775 16 -0.482178 -0.558625 0.213873
S 4.23933 13.46953 9.05478 16 -0.220446 -0.084494 0.495969
S 1.36561 15.40945 8.77638 16 0.375228 0.030274 -0.138414
S 14.24172 7.43041 7.18268 16 0.113375 -0.007618 -0.212326
S 10.72437 8.46018 4.98909 16 0.198271 0.398498 0.581926
S 1.00397 9.435 6.39008 16 -0.69481 0.275429 -0.506878
S 10.82423 5.09017 6.98267 16 0.771058 0.187949 0.11967
S 13.8114 6.82195 13.87931 16 -0.089514 -0.376174 -0.087499
S 0.59841 7.255 12.30194 16 -0.120504 -0.336542 0.642272
S 13.85098 9.113 11.47022 16 0.128457 -0.617279 0.683365
S 10.86915 7.73628 9.14299 16 0.174745 -0.287449 -0.131783
S 9.37559 9.13261 9.43524 16 0.064066 0.698186 0.522178
S 7.42296 6.8986 8.38807 16 0.518865 -0.450777 0.146148
S 6.73921 3.79717 9.37861 16 -0.29906 0.201586 -0.412111
S 9.06757 4.16439 7.43771 16 -0.034042 0.294655 0.723048
S 0.63305 11.46574 9.23793 16 0.008538 0.187288 0.399842
S 5.63221 10.38559 9.47057 16 -0.498337 -0.402444 0.269475
S 0.807 8.02907 9.32622 16 0.357785 0.063233 0.217893
S 2.67816 11.68151 12.71993 16 -0.230519 0.140545 0.165299
S 7.48721 1.06289 6.377 16 -0.600509 -0.010848 -0.14735
S 11.25384 1.64523 2.40004 16 0.036694 -0.735956 0.705203
S 11.03742 1.30973 5.80669 16 -0.074281 0.347959 -0.021388
S 9.3153 3.79463 3.88579 16 -0.260368 0.364179 0.316824
S 12.08876 1.54994 15.41314 16 0.523784 -0.547658 0.172957
S 10.85955 15.92462 12.83382 16 -0.004659 -0.433801 -0.080669
S 12.68252 14.26148 14.87044 16 -0.304598 0.844137 0.124233
S 14.17271 0.57907 12.82991 16 -0.658839 -0.107496 0.780457
S 13.15727 15.04568 2.74186 16 -0.622787 -0.555435 -0.078824
S 14.65429 9.35586 3.90354 16 0.261053 -0.036736 0.299641
S 15.49141 14.87687 0.34744 16 0.155868 -0.145433 0.485524
S 13.38468 12.19097 0.90706 16 -0.373809 0.005333 0.059082
S 5.89865 9.34509 4.58492 16 -0.654302 0.767629 0.145682
S 7.28786 9.09387 16.32528 16 -0.149248 0.123456 -0.202198
S 3.86928 9.75794 16.15731 16 0.492664 -0.038868 0.517228
S 5.27199 6.61678 16.326 16 0.374186 -0.799021 0.055608
S 13.86786 2.91045 4.60463 16 -0.077953 -0.178434 1.558146
S 11.96049 3.44147 1.91942 16 -0.476597 0.827717 -0.733637
S 15.29182 4.23817 2.08612 16 0.974748 0.86688 -0.922934
S 12.91982 5.97918 3.75616 16 0.314459 -0.076108 0.096726
S 10.5092 8.10484 1.74414 16 -0.099816 -0.099494 -0.640464
S 9.40946 5.93289 15.42541 16 0.464864 0.74614 -0.111541
S 12.45608 6.27575 16.35029 16 -0.08206 -0.024602 0.477302
S 11.15418 9.12223 15.0209 16 -0.39978 0.493813 -0.186264
S 2.71386 9.4958 3.56766 16 0.216408 0.08847 0.499866
S 4.84856 12.18838 3.05641 16 -0.435377 0.042047 -0.115276
S 7.45613 12.98286 6.11079 16 -0.045288 -0.615013 0.228827
S 3.7536 11.58908 6.1662 16 0.040792 -0.797909 -0.543268
S 7.96158 4.50155 13.16802 16 0.073281 0.639038 0.156942
S 11.27113 6.46989 10.71658 16 0.852862 0.485188 -0.252744
S 8.11621 1.24941 14.07894 16 0.041067 0.118576 0.043528
S 8.90643 7.76584 12.42617 16 0.062348 0.381106 -0.260146
S 8.83793 11.43309 2.69781 16 -0.104484 -0.312204 -0.790062
S 3.67096 14.51587 0.06021 16 0.249308 -0.090304 -0.032322
S 6.997 11.70223 10.24805 16 0.588551 0.348077 0.403908
S 15.54255 9.91675 14.99067 16 0.125894 0.389599 0.129153
S 3.57619 7.538 13.50479 16 -0.316353 -0.077749 -0.847147
S 5.96739 2.93849 0.25974 16 -0.328598 0.037006 0.328743
S 11.66072 3.5937 12.43913 16 -0.082191 0.211071 0.105095
S 4.2721 2.942 12.71939 16 -0.024473 -0.181749 0.248517
S 0.94883 5.65714 5.53403 16 0.053224 -0.067744 -0.083619
S 15.42938 8.4121 2.12192 16 -0.03394 -0.022273 0.244177
S 5.45469 14.59405 13.02213 16 0.097058 -0.014852 0.014626
S 14.87988 13.0316 6.59316 16 -1.018082 -0.271129 0.324449
S 16.01826 3.48468 12.70943 16 -0.067386 0.143455 0.677091
S 8.30144 6.97268 4.29434 16 0.123781 0.419024 0.024326
S 9.44273 14.85125 3.88 16 -0.021666 -0.224201 -0.392696
S 7.69562 2.07129 10.12711 16 0.283902 0.181007 0.025744
Cl 8.50011 15.0133 0.08688 17 0.009212 0.083365 0.355435
Cl 5.91567 0.0024 2.67155 17 -0.585896 0.38047 -0.262413
Cl 4.00278 7.4679 7.02814 17 -0.674822 0.328432 0.28008
Cl 8.49597 12.1191 14.61211 17 0.199368 -0.016304 -0.032113
Cl 5.99565 10.13931 13.02401 17 0.1319 0.003266 0.239576
Cl 2.27508 2.72514 0.0459 17 0.01968 -0.051887 0.178379
Cl 14.13464 3.43689 8.91853 17 -0.161575 0.349268 0.071078
Cl 1.78235 4.07688 9.44364 17 -0.494463 0.201674 0.039831
Cl 1.49447 11.88261 1.14975 17 -0.348919 -0.323231 -0.294207
Cl 1.33009 13.70765 4.52269 17 0.120909 0.393097 -0.202023
Cl 1.69049 15.41571 12.77407 17 0.305404 0.139728 0.272814
Cl 15.07087 12.89428 12.78629 17 0.088231 -0.213902 0.041937
Cl 1.05551 6.78078 16.17275 17 -0.13967 -0.189928 -0.057007
Cl 12.44425 10.6511 8.4432 17 -0.091097 0.186803 -0.300206
Cl 14.17927 0.48501 6.59775 17 0.559716 -0.338754 -0.394901
Cl 4.55721 5.99825 10.58807 17 0.173648 0.342348 -0.496439
208
energy=-829.54727059 pbc="T T T" Lattice="16.026082 0.0 0.0 0.0 16.1 0.0 0.0 0.0 16.425367" Properties=species:S:1:pos:R:3:Z:I:1:force:R:3
Li 11.05153 13.1999 2.94224 3 0.132992 0.300651 -0.136425
Li 9.29928 10.80461 0.09668 3 0.000166 0.099107 -0.126198
Li 10.63451 10.25326 3.30624 3 0.407726 -0.144182 0.312747
Li 13.18689 15.72605 0.44673 3 0.016751 0.111316 -0.11774
Li 9.27535 12.70845 4.6457 3 -0.059403 -0.09343 0.235822
Li 14.32998 12.26691 14.97102 3 0.225234 -0.061851 0.030803
Li 3.8881 0.69455 0.79182 3 -0.137458 0.219472 0.199462
Li 3.49327 13.38216 4.58917 3 0.09023 0.422616 0.165276
Li 1.86208 0.10337 5.91428 3 -0.519324 0.417042 -0.489268
Li 3.87835 12.1583 0.67928 3 -0.098543 0.092028 0.26468
Li 1.51648 11.1205 14.9988 3 0.058553 0.259206 -0.194352
Li 5.263 13.47538 6.88833 3 -0.123512 -0.037328 0.154039
Li 6.03207 7.82237 9.96967 3 -0.311128 0.159339 0.206668
Li 8.4086 12.82557 8.57176 3 0.177983 0.110022 0.106026
Li 11.92363 13.53732 12.5973 3 -0.005489 0.062837 -0.285026
Li 5.73668 10.36648 7.07777 3 0.067843 -0.127972 -0.089059
Li 11.43409 8.55392 12.54652 3 -0.15674 -0.338843 -0.286538
Li 2.89604 11.32658 10.16087 3 0.205672 0.196728 0.116445
Li 15.23963 14.90491 14.29404 3 0.064043 -0.041611 -0.274127
Li 14.8361 7.74994 15.92148 3 0.109794 0.016941 0.115602
Li 2.74828 7.3408 11.20471 3 0.141426 0.251402 -0.059584
Li 7.975 14.48499 14.35384 3 -0.246848 -0.024704 -0.301903
Li 15.7677 10.01996 12.52317 3 0.224138 0.334413 -0.120586
Li 13.55242 9.20513 14.02017 3 -0.113131 -0.118819 -0.098116
Li 5.79296 7.87146 14.39431 3 -0.046544 0.180809 -0.081399
Li 1.17167 8.23412 14.34915 3 0.161452 -0.105052 -0.223691
Li 3.80445 9.83682 13.56647 3 0.046402 -0.275455 -0.005037
Li 6.47818 11.09829 15.01345 3 0.089576 -0.198818 0.343509
Li 1.04551 5.10279 11.46426 3 0.069957 -0.268171 0.076491
Li 8.18763 10.32557 12.35923 3 0.270207 0.025538 -0.031375
Li 4.05153 4.52315 0.72945 3 -0.008962 -0.332046 -0.010795
Li 5.68394 2.34458 2.49201 3 0.168373 0.289178 -0.219995
Li 7.49839 1.20957 16.24846 3 -0.109655 0.165068 0.443413
Li 7.0017 4.96235 0.89905 3 0.024623 0.136144 -0.016837
Li 10.39077 6.10596 3.26423 3 -0.101582 0.053655 0.21871
Li 1.16169 2.58912 2.09403 3 0.262902 -0.192207 0.278182
Li 12.88591 1.75065 7.71765 3 -0.140444 0.469071 0.163286
Li 13.24418 4.87447 10.87249 3 -0.155819 -0.014906 -0.127072
Li 10.13503 0.20731 15.2245 3 -0.5681 -0.005514 -0.127054
Li 9.86152 5.1161 11.59677 3 -0.477077 -0.377352 0.063016
Li 13.87987 2.91948 13.39689 3 0.026623 -0.136689 0.053711
Li 11.96549 5.21766 14.14591 3 0.055463 0.232994 -0.054389
Li 7.67295 3.28595 5.65429 3 -0.234652 0.170553 -0.068961
Li 3.82062 0.31898 12.20382 3 0.037098 0.005279 -0.006745
Li 4.98895 1.37674 5.95282 3 0.267099 0.368248 -0.016263
Li 15.71105 3.0666 10.50474 3 0.352688 -0.221539 -0.179038
Li 6.69393 0.48406 8.47266 3 0.006883 0.161629 -0.06155
Li 15.26396 5.23104 6.8222 3 -0.513828 -0.194883 0.48175
Li 6.04291 6.74216 6.43242 3 0.07959 0.183529 0.075187
Li 0.13519 3.43725 4.51266 3 0.465033 0.039473 0.092742
Li 2.64736 4.23863 4.91466 3 0.408699 0.040559 -0.054086
Li 15.4749 6.44263 3.9345 3 0.070427 0.032389 -0.375213
Li 2.22251 7.56936 5.35944 3 0.472193 0.191987 0.005861
Li 4.5367 7.76175 3.27334 3 0.170526 0.229018 0.015078
Li 12.52943 9.79969 5.13192 3 0.207182 0.401739 0.081256
Li 1.98736 9.66134 1.27109 3 -0.00938 -0.187064 0.22575
Li 12.86329 7.46315 1.9828 3 0.22586 0.298991 -0.111178
Li 0.86139 11.52527 4.90317 3 -0.161186 -0.04958 0.210075
Li 15.1956 10.72235 0.98017 3 0.223397 -0.276573 -0.158147
Li 1.80248 6.33568 7.73269 3 0.388407 0.013988 0.214932
Li 6.84868 0.21801 12.37752 3 0.37526 0.477169 0.096532
Li 5.06345 15.47037 15.23055 3 0.816622 0.068661 -0.960572
Li 5.88751 14.46076 10.70427 3 -0.083821 -0.144692 -0.354549
Li 1.29376 13.23894 11.94747 3 -0.388972 0.308309 -0.040822
Li 3.17739 13.91328 14.19215 3 -0.001178 0.04038 -0.459045
Li 4.97834 12.20716 12.16606 3 0.085348 0.099521 0.075226
Li 1.02115 13.36435 7.48365 3 -0.197537 -0.134689 -0.031554
Li 14.0868 14.67631 7.92176 3 0.125159 0.390482 0.006289
Li 13.69494 13.04437 4.49369 3 0.190343 0.043475 0.082661
Li 14.41205 11.86668 8.70116 3 -0.020583 0.00508 -0.159004
Li 12.58371 12.6196 6.93055 3 -0.113422 -0.314688 0.046087
Li 12.25493 1.36099 11.58936 3 0.003754 0.069861 -0.396547
Li 0.10427 5.49927 14.36821 3 -0.108391 -0.151947 -0.560073
Li 6.06361 3.01562 14.22516 3 0.301374 -0.233597 0.507553
Li 1.97898 2.77401 13.88594 3 0.223306 -0.06459 0.027925
Li 4.70362 5.5273 12.73863 3 -0.414439 -0.147131 0.263262
Li 1.65914 14.17461 1.02855 3 -0.385545 0.161009 0.119139
Li 3.23899 7.39809 15.63033 3 -0.06503 -0.090738 0.380803
Li 9.44629 7.04312 6.64126 3 -0.017343 -0.162611 0.083322
Li 8.24728 9.15073 1.95182 3 0.072633 -0.115954 0.602575
Li 11.27428 3.73127 5.207 3 0.317759 -0.044338 0.140891
Li 8.38042 9.43963 4.9869 3 0.125461 -0.063822 0.030894
Li 6.84529 11.54521 3.89823 3 0.29239 0.038424 0.267795
Li 12.33461 7.04345 5.86134 3 -0.337865 -0.344763 0.102024