 208
 energy=-829.60365249495408 cutoff=4.00000000 nneightol=1.20000000 pbc="T T T" Lattice="16.02608200       0.00000000       0.00000000       0.00000000      16.10000000       0.00000000       0.00000000       0.00000000      16.42536700" Properties=species:S:1:pos:R:3:Z:I:1:force:R:3:map_shift:I:3:n_neighb:I:1
 Li             11.00250000     13.18964000      2.94742000       3      0.45563331      0.34413290     -0.33786885      -1      -1       0      20
 Li              9.30362000     10.67987000      0.04896000       3      0.16284062      0.36214425      0.09034140      -1      -1       0      15
 Li             10.81349000     10.33177000      3.37657000       3     -0.16157425     -0.39081814     -0.02986628      -1      -1       0      19
 Li             13.15758000     15.74690000      0.32036000       3      0.10921338      0.34586702      0.31952174      -1      -1       0      15
 Li              9.34468000     12.62902000      4.74908000       3      0.01230293      0.04649413      0.07381609      -1      -1       0      20
 Li             14.41329000     12.09687000     14.99582000       3      0.21326862     -0.53743828     -0.07920848      -1      -1      -1      17
 Li              3.88291000      0.82021000      0.99694000       3     -0.20736179     -0.28938408     -0.28835129       0       0       0      12
 Li              3.51189000     13.46375000      4.78429000       3     -0.25713549      0.92758426     -0.44441576       0      -1       0      18
 Li              1.66838000      0.38732000      5.72599000       3      0.45177843     -0.87153256      0.44757188       0       0       0      13
 Li              3.80284000     12.07923000      0.70480000       3     -0.04142693      0.33392484      0.26879231       0      -1       0      15
 Li              1.58611000     11.26237000     14.83608000       3     -0.23897755     -0.07682678      0.19216697       0      -1      -1      20
 Li              5.20839000     13.41938000      6.89510000       3      0.30998034     -0.34066879     -0.37575158       0      -1       0      22
 Li              5.94260000      7.92843000      9.98715000       3      0.17183896     -0.53547954      0.28602404       0       0      -1      18
 Li              8.40272000     12.93929000      8.56163000       3      0.06157529      0.36915670      0.15383818      -1      -1      -1      20
 Li             11.87538000     13.33778000     12.66095000       3      0.02259523      0.60532479      0.60720686      -1      -1      -1      16
 Li              5.64050000     10.25414000      7.13072000       3      0.00568328      0.07605302     -0.76903220       0      -1       0      18
 Li             11.36417000      8.41338000     12.57133000       3     -0.18897344     -0.09657563     -0.79046612      -1      -1      -1      20
 Li              2.93608000     11.44878000     10.16045000       3      0.19504048      0.40660790      0.71097043       0      -1      -1      20
 Li             15.19932000     14.95957000     14.21724000       3      0.34828722     -0.34080928     -0.31454575      -1      -1      -1      16
 Li             14.98237000      7.77488000     15.97478000       3     -0.31847468      0.23540344     -0.33033736      -1       0      -1      21
 Li              2.81336000      7.30072000     11.17077000       3     -0.28517575      0.74329095      0.16499184       0       0      -1      19
 Li              7.89407000     14.46908000     14.38025000       3     -0.34599436     -0.23881414     -0.20081140       0      -1      -1      18
 Li             15.86514000     10.36498000     12.44891000       3     -0.06310112      0.27181998      0.38939099      -1      -1      -1      20
 Li             13.51755000      9.27848000     14.00004000       3     -0.31890284     -0.73452340     -0.17732621      -1      -1      -1      18
 Li              5.74938000      7.92622000     14.24095000       3      0.40302954     -0.04667477     -0.10588519       0       0      -1      19
 Li              1.25236000      8.32558000     14.27264000       3      0.05043776      0.08984756      0.18676421       0      -1      -1      20
 Li              3.83204000      9.88767000     13.44203000       3     -0.07648603     -0.21834094      0.06416346       0      -1      -1      21
 Li              6.63030000     11.04920000     15.09002000       3     -0.30497790     -0.37579766      0.33500151       0      -1      -1      15
 Li              1.10111000      4.93236000     11.59199000       3     -0.32031763      0.72903292     -0.34921239       0       0      -1      20
 Li              8.12820000     10.55603000     12.29651000       3     -0.35459325     -0.11440733      0.12007090      -1      -1      -1      21
 Li              4.04969000      4.49724000      0.80039000       3     -0.07778176     -0.14001755     -0.28456532       0       0       0      16
 Li              5.85818000      2.31195000      2.44189000       3      0.13371483      0.21077182      0.77209926       0       0       0      19
 Li              7.27945000      1.02377000      0.03332000       3      0.53904859      0.17207109     -0.56594775       0       0       0      16
 Li              6.98258000      5.01454000      0.97946000       3     -0.22176448      0.18199103      0.18867245       0       0       0      20
 Li             10.51579000      6.15450000      3.46220000       3      0.55137749      0.13675198     -0.13636898      -1       0       0      20
 Li              1.13107000      2.69508000      2.30925000       3      0.37894280     -0.08686089     -0.41086893       0       0       0      13
 Li             13.01238000      1.72509000      7.97342000       3     -1.06766721      0.07779578      1.00152554      -1       0       0      18
 Li             13.09626000      4.79944000     10.93998000       3     -0.69513038     -0.26122490     -0.27673835      -1       0      -1      18
 Li             10.10239000      0.07068000     15.24433000       3     -0.43999637      0.43226813     -0.11263000      -1       0      -1      17
 Li              9.67349000      5.02373000     11.58956000       3     -0.78751980     -0.34068599      0.10119635      -1       0      -1      19
 Li             13.92936000      2.94769000     13.63287000       3      0.00425153      0.07761836     -0.45917454      -1       0      -1      16
 Li             11.94119000      5.29714000     14.16972000       3      0.22252004     -0.40992416     -0.01986530      -1       0      -1      20
 Li              7.62715000      3.53298000      5.65536000       3      0.03047067     -0.04202370      0.46663042       0       0       0      22
 Li              3.95631000      0.35800000     12.23520000       3     -0.45938269      0.05160302     -0.13871028       0       0      -1      17
 Li              5.07894000      1.54738000      5.70916000       3      0.25151621     -0.25427204      0.23767352       0       0       0      16
 Li             15.75188000      2.98294000     10.40722000       3      0.01592037      0.12777346      0.34101947      -1       0      -1      13
 Li              6.77569000      0.62835000      8.56390000       3     -1.29476667     -0.26545466     -0.75372735       0       0      -1      19
 Li             15.12196000      5.14316000      6.75199000       3     -0.29158469      0.62165330      0.45169105      -1       0       0      19
 Li              5.98781000      6.86235000      6.47423000       3      0.68364089     -0.30466667     -0.67106306       0       0       0      21
 Li              0.29494000      3.41595000      4.63394000       3     -0.56078211      0.61188339      0.10968771       0       0       0      14
 Li              2.85243000      4.23303000      5.13669000       3      0.27686452     -0.18668124     -0.49592924       0       0       0      18
 Li             15.62528000      6.47237000      3.68347000       3     -0.07083283      0.00336654      0.12138885      -1       0       0      22
 Li              2.40433000      7.50197000      5.51897000       3     -1.03650251      0.56436780     -1.77345912       0       0       0      20
 Li              4.50323000      7.80040000      3.25985000       3      0.33512889      0.02682622     -0.26354494       0       0       0      21
 Li             12.68840000      9.93866000      5.14715000       3     -0.30366026     -0.38841364      0.01090284      -1      -1       0      21
 Li              1.82910000      9.55175000      1.38224000       3      0.57598635      0.25593509     -0.06229839       0      -1       0      19
 Li             12.97921000      7.52688000      2.02935000       3     -0.39766601      0.22513207     -0.63861599      -1       0       0      18
 Li              0.87747000     11.52420000      4.74839000       3      0.63733765     -0.04620600     -0.21378465       0      -1       0      19
 Li             15.07322000     10.54885000      1.00939000       3      0.31689229      0.11974089     -0.64074444      -1      -1       0      16
 Li              1.94089000      6.44879000      7.78690000       3     -0.18637453      0.12681634      0.25736767       0       0       0      16
 Li              6.89613000      0.38198000     12.39074000       3      0.02742381     -0.79192009     -0.80142918       0       0      -1      19
 Li              5.13320000     15.47146000     15.02832000       3     -0.10137768     -0.06583215      0.49119658       0      -1      -1      18
 Li              5.79397000     14.61137000     10.55757000       3     -0.20100517     -0.30396302      0.37800023       0      -1      -1      18
 Li              1.24740000     13.48552000     11.84515000       3      0.41224435      0.71628295      0.81555775       0      -1      -1      16
 Li              3.33374000     13.79009000     14.09493000       3     -0.29228838      0.25007759     -0.01552831       0      -1      -1      16
 Li              4.93800000     12.17422000     12.02700000       3      0.03160451      0.40837397      0.23485692       0      -1      -1      18
 Li              0.78891000     13.38084000      7.38036000       3      0.97587194      0.23599197      0.91814398       0      -1       0      21
 Li             14.24297000     14.97139000      7.96425000       3      0.24666486     -0.59689518     -0.18036351      -1      -1       0      16
 Li             13.72001000     13.15439000      4.58843000       3      0.14210956      0.15311789     -0.65993231      -1      -1       0      21
 Li             14.39220000     11.86939000      8.71705000       3      0.21672055      0.25932150     -0.81017616      -1      -1      -1      18
 Li             12.55069000     12.69310000      7.01004000       3      0.17232465     -0.07303842      0.82686664      -1      -1       0      19
 Li             12.15115000      1.47290000     11.63703000       3      0.07681121      0.78616545     -0.84397401      -1       0      -1      20
 Li              0.07401000      5.44489000     14.18265000       3     -0.43362496      0.20487971     -0.41044530       0       0      -1      17
 Li              6.19034000      2.85216000     14.37949000       3      0.37115332      0.15581458     -0.14312023       0       0      -1      19
 Li              1.98336000      2.79921000     13.82235000       3      0.31962425     -0.43061982     -0.57924348       0       0      -1      13
 Li              4.48674000      5.50424000     12.79041000       3      0.51558066     -0.68372024     -0.57590952       0       0      -1      18
 Li              1.74788000     14.21065000      1.07561000       3     -0.98341641     -0.02243631      0.16887135       0      -1       0      13
 Li              3.24116000      7.38833000     15.73340000       3     -0.60984223      0.31774139      0.07849089       0       0      -1      18
 Li              9.44765000      6.95885000      6.64900000       3     -0.02169610      0.28496018     -0.03851081      -1       0       0      19
 Li              8.35397000      9.11766000      2.05678000       3     -0.02843872      0.22217193      0.08095213      -1      -1       0      18
 Li             11.20203000      3.67240000      5.18485000       3      0.55739094     -0.20424056     -0.58645656      -1       0       0      19
 Li              8.44317000      9.25708000      5.03214000       3      0.49814135      0.46093910      0.34725190      -1      -1       0      21
 Li              6.97257000     11.55453000      4.04472000       3      0.14993495      0.18321179     -0.17176975       0      -1       0      18
 Li             12.36980000      6.92374000      5.79273000       3     -0.37027441      0.70236099      0.10106739      -1       0       0      20
 Li             13.29773000      0.59330000      4.10074000       3      0.03014625      1.29154294      0.26683692      -1       0       0      18
 Li              8.30761000     13.88369000      2.12055000       3     -0.12146030     -0.33847164     -0.11261954      -1      -1       0      16
 Li             10.47639000     10.77487000      6.65422000       3      0.02131078     -0.18357888      1.60149004      -1      -1       0      21
 Li             11.40059000     14.99765000      5.27347000       3     -0.22330341     -0.03420589      0.54729382      -1      -1       0      21
 Li              7.57323000      0.24028000      4.13925000       3      0.56850392     -0.04200928      0.33120965       0       0       0      19
 Li              8.78386000     15.23675000      6.15196000       3     -0.12761976     -0.51568681      0.49460238      -1      -1       0      21
 Li              6.33501000      3.54918000     11.54527000       3      0.25626217      0.03887492      1.31746880       0       0      -1      17
 Li             13.15044000      8.49074000      9.31102000       3      0.26717899     -0.06723716     -0.16590286      -1      -1      -1      17
 Li              9.43241000      1.63599000     12.13643000       3     -0.30455361      0.64377494     -0.23550203      -1       0      -1      21
 Li              3.41869000      3.05623000     10.61156000       3      0.21229603     -0.28132136     -0.34063108       0       0      -1      15
 Li              9.25696000      1.82962000      7.70899000       3      0.88301256     -1.26224809      0.01327169      -1       0       0      21
 Li              9.98223000      3.06517000     14.31811000       3     -0.75724228     -0.20720309     -0.79360967      -1       0      -1      17
 P              11.29232000     14.96281000      9.29969000      15     -2.04738812     -0.44314719      0.13409240      -1      -1      -1      20
 P              10.14618000     11.11906000     10.29718000      15      0.38250228      1.73711114     -1.38839876      -1      -1      -1      19
 P               5.56117000      4.57551000      3.77832000      15     -0.14835366      0.96463860     -0.19093658       0       0       0      16
 P               3.38755000     15.29258000      8.54028000      15      1.54111572      0.47918646     -1.62037788       0      -1      -1      16
 P              14.89037000      9.10300000      6.12584000      15      0.74090642     -0.03889913      1.00075537      -1      -1       0      23
 P              14.53632000      7.07062000     11.88107000      15      0.62750118      0.86968560      0.25132211      -1       0      -1      18
 P               8.34670000      5.24107000      9.26380000      15     -2.07436831     -0.21164454     -0.63773331      -1       0      -1      19
 P               1.57457000      9.76057000      8.55431000      15      0.95163420     -0.73208733      0.47448316       0      -1      -1      17
 P               9.71069000      1.77634000      4.15864000      15      0.74257392     -0.05400094     -1.55446304      -1       0       0      18
 P              12.50175000      0.05878000     13.98573000      15     -0.47235264     -0.57621185     -0.38935677      -1       0      -1      16
 P              14.58563000     13.65375000      1.87707000      15     -0.06727590      1.03141996      0.98243649      -1      -1       0      15
 P               5.51435000      8.44042000      0.80829000      15     -0.08580233      0.30004666     -0.17496889       0      -1       0      21
 P              13.63811000      4.13869000      3.08678000      15     -1.31277275     -0.18149346      0.23040035      -1       0       0      17
 P              10.79808000      7.52122000     16.16855000      15      1.43192563     -1.73451663      0.61058240      -1       0      -1      16
 P               4.26959000     10.68625000      4.35858000      15     -0.38453523     -1.37874305     -0.58677324       0      -1       0      20
 P               7.99492000      6.55256000     13.77050000      15     -0.58969656     -1.02464479      1.36462290       0       0      -1      19
 S              11.19668000      0.91787000      9.35565000      16      0.29206105      0.89243266     -1.30240757      -1       0      -1      18
 S              10.75599000     14.07601000      7.49997000      16     -0.41621907      0.96360613     -0.01812405      -1      -1       0      25
 S               9.57746000     14.16845000     10.60053000      16      0.73126514     -0.77425146     -0.34958943      -1      -1      -1      19
 S              12.88209000     14.18826000     10.14070000      16      1.69688810     -0.95963878     -0.33347193      -1      -1      -1      19
 S              10.97680000     10.90014000     12.08509000      16     -0.44481247      0.05282040     -0.36343650      -1      -1      -1      16
 S              11.58722000     12.10819000      4.91944000      16      0.48627502     -0.54741777     -0.47245510      -1      -1       0      21
 S               8.09409000     15.52868000     10.23821000      16     -0.85200471     -0.55515261      1.09965616      -1      -1      -1      19
 S               8.15533000     11.11326000      7.02389000      16     -0.13554917     -0.48659203     -0.62918011      -1      -1       0      20
 S               6.73530000      6.46614000      3.10482000      16      0.04464252      0.15691235     -0.02330096       0       0       0      20
 S               5.54675000      4.66035000      5.80705000      16      0.23450586     -0.34866133      0.80703133       0       0       0      19
 S               2.07933000      2.13107000      4.34041000      16      1.04878365     -0.34041656     -0.05143938       0       0       0      14
 S               3.75889000      5.51781000      3.07237000      16     -0.47091649     -0.58847868     -0.36486683       0       0       0      23
 S               3.96605000     15.46216000      6.46841000      16     -1.19074058      0.35966355      0.09284855       0      -1       0      17
 S               4.45593000      0.69528000      9.53792000      16     -0.27373798     -0.22485083      0.44028292       0       0      -1      20
 S               4.24728000     13.44739000      9.02580000      16     -0.92603047     -0.05444520      1.56535308       0      -1      -1      22
 S               1.36240000     15.36905000      8.78877000      16     -0.14395535     -0.49064104     -0.27457204       0      -1      -1      15
 S              14.28166000      7.45039000      7.18654000      16     -0.25100066      0.60115460     -1.42324946      -1       0       0      19
 S              10.73455000      8.54574000      4.98987000      16      0.22096791     -0.05840472      0.92518021      -1      -1       0      22
 S               0.99903000      9.46644000      6.36679000      16      0.48527217      0.90871861     -0.87543969       0      -1       0      18
 S              10.79828000      5.06533000      6.93895000      16      0.98260538      0.38642838      0.36139299      -1       0       0      22
 S              13.81328000      6.85823000     13.87435000      16      0.60921624     -0.85633432      0.34154938      -1       0      -1      21
 S               0.59420000      7.30204000     12.31078000      16      0.02678895     -1.15005843      0.09678229       0       0      -1      18
 S              13.86260000      9.11868000     11.49810000      16     -0.91152950     -0.40906870      0.21354781      -1      -1      -1      20
 S              10.86963000      7.68485000      9.10651000      16      0.58654918     -1.83537775     -0.27036846      -1       0      -1      20
 S               9.40107000      9.09905000      9.44140000      16     -0.66262364      0.99065824      0.85002072      -1      -1      -1      18
 S               7.42500000      6.89301000      8.36090000      16      1.51682454     -1.06538589      0.48879614       0       0      -1      21
 S               6.72005000      3.80671000      9.35729000      16      0.08129500      0.66503231     -0.28227643       0       0      -1      20
 S               9.12534000      4.10932000      7.47140000      16      0.18251712      0.75474928      0.28671666      -1       0       0      21
 S               0.65528000     11.44619000      9.24286000      16     -0.19225498     -0.80736566      0.04698379       0      -1      -1      18
 S               5.65268000     10.39309000      9.49878000      16     -0.16311322     -0.55481891     -0.00978627       0      -1      -1      18
 S               0.82881000      8.03845000      9.35962000      16     -0.21678859      0.60690179      0.00202591       0       0      -1      19
 S               2.67351000     11.71129000     12.71077000      16     -0.68822447      0.66255299     -0.53469774       0      -1      -1      17
 S               7.40758000      1.09162000      6.36921000      16      0.47341310      0.30405841     -0.53029182       0       0       0      21
 S              11.23104000      1.62001000      2.44488000      16     -0.05784813      0.01108142     -0.43108797      -1       0       0      16
 S              11.05724000      1.30282000      5.77820000      16     -1.51070222      1.33683582      0.49595476      -1       0       0      21
 S               9.28151000      3.79922000      3.90484000      16      0.17940954     -0.50585677      0.27339558      -1       0       0      21
 S              12.12160000      1.52464000     15.44392000      16      0.07762283     -0.71512270     -0.58207130      -1       0      -1      16
 S              10.82070000     15.91382000     12.85320000      16      1.13305049     -0.51658867      0.41681939      -1      -1      -1      20
 S              12.66727000     14.31149000     14.92224000      16      0.30243319      0.47119657     -0.39425445      -1      -1      -1      14
 S              14.12785000      0.57774000     12.83973000      16     -0.42369291     -0.06186539      0.79019895      -1       0      -1      15
 S              13.11838000     15.00361000      2.75048000      16     -0.18916086     -2.07741348     -1.01506779      -1      -1       0      15
 S              14.64957000      9.34422000      3.89183000      16     -1.08465831     -0.53436338      0.89968830      -1      -1       0      18
 S              15.47111000     14.87397000      0.36708000      16     -0.78677804     -0.17996103      0.16507550      -1      -1       0      13
 S              13.33006000     12.18140000      0.95774000      16      0.67321719      0.58374152     -0.02430307      -1      -1       0      18
 S               5.90461000      9.34325000      4.60745000      16     -0.96005907      0.50611156      0.47519541       0      -1       0      18
 S               7.29485000      9.10126000     16.31850000      16      0.13024614      0.13028168      0.18192574       0      -1      -1      20
 S               3.92274000      9.74185000     16.16338000      16     -0.70131268      0.21242080      0.45218403       0      -1      -1      19
 S               5.25897000      6.59639000     16.27719000      16      0.77859594     -0.17124465      0.47359581       0       0      -1      18
 S              13.87263000      2.86177000      4.59744000      16     -0.02398427      0.72966385      0.86607495      -1       0       0      21
 S              11.95510000      3.46771000      1.88411000      16     -0.53156608     -0.44370503      0.36257581      -1       0       0      15
 S              15.31915000      4.26614000      2.08909000      16      0.75926635      0.98511471     -0.28809052      -1       0       0      15
 S              12.89274000      5.96828000      3.77427000      16      0.41072125     -0.53222118      0.39340828      -1       0       0      22
 S              10.53443000      8.09693000      1.74352000      16     -1.27660316     -0.34870361     -0.81281266      -1      -1       0      17
 S               9.39344000      5.94719000     15.42523000      16      0.31561310      1.25441326      0.67772026      -1       0      -1      16
 S              12.47233000      6.24157000     16.35313000      16     -0.17472308      0.62261434      0.83590716      -1       0      -1      17
 S              11.12837000      9.09185000     15.02254000      16      0.20410774      1.05664327      0.30666051      -1      -1      -1      21
 S               2.71055000      9.51776000      3.53929000      16      0.50123252     -0.14398641      0.93300641       0      -1       0      19
 S               4.83122000     12.17440000      3.04423000      16     -0.06730613     -0.19496543      0.84721483       0      -1       0      21
 S               7.49334000     13.00133000      6.13030000      16     -0.26584506     -0.15629881      0.28051717       0      -1       0      25
 S               3.71268000     11.57747000      6.16337000      16      0.90008424     -0.35866626     -0.65136547       0      -1       0      22
 S               7.92708000      4.49692000     13.20071000      16     -0.20771631      0.62684209     -1.18122601       0       0      -1      20
 S              11.23204000      6.43199000     10.67516000      16      0.85314363      0.79432965     -0.12798305      -1       0      -1      18
 S               8.10480000      1.19785000     14.03823000      16      0.51395373      0.70729038      0.86837078      -1       0      -1      18
 S               8.89866000      7.74589000     12.46517000      16      0.09592786     -0.80505641     -0.79620744      -1       0      -1      20
 S               8.82923000     11.42262000      2.64627000      16     -0.29295699      0.01890751     -0.86329175      -1      -1       0      19
 S               3.69871000     14.51312000      0.06266000      16     -0.09381320     -0.03251471      0.34305482       0      -1       0      13
 S               7.01543000     11.73935000     10.31641000      16      0.59285965     -0.49354025      0.18111468       0      -1      -1      19
 S              15.54825000      9.94907000     15.01174000      16      0.02817547      0.05312573     -0.61870827      -1      -1      -1      18
 S               3.56252000      7.56881000     13.49947000      16      0.07181656     -0.05144009     -0.02947196       0       0      -1      18
 S               5.95754000      2.88359000      0.34739000      16     -0.45658689      0.45251945     -0.21774461       0       0       0      15
 S              11.65708000      3.60325000     12.43264000      16     -0.08947594      0.06819756      0.68842071      -1       0      -1      18
 S               4.30418000      2.93139000     12.71742000      16     -0.83959476     -0.12472172      0.91059004       0       0      -1      20
 S               0.93377000      5.61060000      5.50305000      16      0.33153358      0.66837957      0.58711265       0       0       0      18
 S              15.44590000      8.43886000      2.10144000      16      0.67846063     -0.51589171     -0.09337504      -1      -1       0      17
 S               5.46734000     14.55722000     13.06877000      16      0.51319448      0.06917121     -1.76634365       0      -1      -1      18
 S              14.86049000     13.02596000      6.60525000      16     -0.83876399      0.10858770      0.79828966      -1      -1       0      18
 S              15.98397000      3.51255000     12.68763000      16      0.11221277     -0.35000413      0.56709211      -1       0      -1      17
 S               8.29314000      6.95364000      4.29628000      16      0.09876382     -0.31938756     -0.90052953      -1       0       0      21
 S               9.46715000     14.83071000      3.82928000      16     -0.12542844      0.10975800     -0.01338333      -1      -1       0      19
 S               7.72742000      2.09111000     10.11822000      16      0.65633775     -0.49685288     -0.54219387       0       0      -1      19
 Cl              8.51599000     14.99932000      0.12919000      17      0.43419427     -0.07786515     -0.29831192      -1      -1       0      15
 Cl              5.92517000     16.04154000      2.67224000      17     -0.21080433      0.37271456     -0.08378495       0      -1       0      16
 Cl              4.00848000      7.49536000      7.03816000      17     -0.90619660     -0.24858062      1.04043580       0       0       0      21
 Cl              8.53678000     12.12303000     14.56353000      17     -0.30842388     -0.46487871      0.22147263      -1      -1      -1      14
 Cl              5.94434000     10.08317000     13.00469000      17      0.63251566      0.11740627      1.00060026       0      -1      -1      17
 Cl              2.27517000      2.75781000      0.07591000      17      0.23334809      0.05319060      0.39082567       0       0       0      13
 Cl             14.09355000      3.39417000      8.93116000      17      0.46179603      0.39386722      1.16761855      -1       0      -1      14
 Cl              1.78077000      4.03599000      9.41221000      17     -0.08367167      0.34148694      0.55673337       0       0      -1      14