 208
 energy=-829.83343363527354 cutoff=4.00000000 nneightol=1.20000000 pbc="T T T" Lattice="16.02608200       0.00000000       0.00000000       0.00000000      16.10000000       0.00000000       0.00000000       0.00000000      16.42536700" Properties=species:S:1:pos:R:3:Z:I:1:force:R:3:map_shift:I:3:n_neighb:I:1
 Li             11.00250000     13.18964000      2.94742000       3      0.08798718      0.23401787     -0.36611970      -1      -1       0      20
 Li              9.30362000     10.67987000      0.04896000       3      0.08922709      0.30258827      0.14000749      -1      -1       0      15
 Li             10.81349000     10.33177000      3.37657000       3     -0.16289654     -0.07542101     -0.20782952      -1      -1       0      19
 Li             13.15758000     15.74690000      0.32036000       3     -0.06129213      0.30338028      0.45435164      -1      -1       0      15
 Li              9.34468000     12.62902000      4.74908000       3     -0.13032214      0.25179227     -0.40476456      -1      -1       0      20
 Li             14.41329000     12.09687000     14.99582000       3     -0.33409595      0.14200029     -0.02304556      -1      -1      -1      17
 Li              3.88291000      0.82021000      0.99694000       3     -0.15281918     -0.23606741     -0.30356522       0       0       0      12
 Li              3.51189000     13.46375000      4.78429000       3      0.11455856      0.28881528      0.09039643       0      -1       0      18
 Li              1.66838000      0.38732000      5.72599000       3      0.44259981     -0.77810189      0.18065939       0       0       0      13
 Li              3.80284000     12.07923000      0.70480000       3      0.01847033      0.07513806      0.01331059       0      -1       0      15
 Li              1.58611000     11.26237000     14.83608000       3      0.00177820      0.21899103     -0.00750730       0      -1      -1      20
 Li              5.20839000     13.41938000      6.89510000       3      0.55201969     -0.13399551     -0.20614547       0      -1       0      22
 Li              5.94260000      7.92843000      9.98715000       3     -0.15077259     -0.66400531     -0.39175542       0       0      -1      18
 Li              8.40272000     12.93929000      8.56163000       3      0.06438170     -0.24468652     -0.12063868      -1      -1      -1      20
 Li             11.87538000     13.33778000     12.66095000       3      0.28174146     -0.01041977      0.43017748      -1      -1      -1      16
 Li              5.64050000     10.25414000      7.13072000       3      0.43076994     -0.15692832     -0.86166515       0      -1       0      18
 Li             11.36417000      8.41338000     12.57133000       3     -0.05332961     -0.38175919     -0.43879558      -1      -1      -1      20
 Li              2.93608000     11.44878000     10.16045000       3     -0.05518733      0.02806147     -0.00140442       0      -1      -1      20
 Li             15.19932000     14.95957000     14.21724000       3      0.19371248     -0.20556965     -0.13121684      -1      -1      -1      16
 Li             14.98237000      7.77488000     15.97478000       3     -0.15275272      0.05403675     -0.04977871      -1       0      -1      21
 Li              2.81336000      7.30072000     11.17077000       3     -0.23026143      0.78016819      0.01517863       0       0      -1      19
 Li              7.89407000     14.46908000     14.38025000       3     -0.09573963      0.09476722     -0.43404490       0      -1      -1      18
 Li             15.86514000     10.36498000     12.44891000       3     -0.19742819      0.03833012      0.18928470      -1      -1      -1      20
 Li             13.51755000      9.27848000     14.00004000       3     -0.07259933     -0.14879311      0.04748816      -1      -1      -1      18
 Li              5.74938000      7.92622000     14.24095000       3      0.49927534      0.03094233     -0.11550553       0       0      -1      19
 Li              1.25236000      8.32558000     14.27264000       3      0.24772284      0.01729484      0.24274994       0      -1      -1      20
 Li              3.83204000      9.88767000     13.44203000       3     -0.00360410     -0.13474541      0.14668328       0      -1      -1      21
 Li              6.63030000     11.04920000     15.09002000       3     -0.04684146     -0.16328016      0.12512361       0      -1      -1      15
 Li              1.10111000      4.93236000     11.59199000       3      0.32613130      0.45097698     -0.33819855       0       0      -1      20
 Li              8.12820000     10.55603000     12.29651000       3      0.10199148      0.13991810     -0.01388349      -1      -1      -1      21
 Li              4.04969000      4.49724000      0.80039000       3      0.01777885     -0.16255169     -0.18742797       0       0       0      16
 Li              5.85818000      2.31195000      2.44189000       3      0.07159329     -0.09198438      0.62474769       0       0       0      19
 Li              7.27945000      1.02377000      0.03332000       3      0.30515542     -0.12479301     -0.12413874       0       0       0      16
 Li              6.98258000      5.01454000      0.97946000       3     -0.08921995      0.00112942     -0.00662354       0       0       0      20
 Li             10.51579000      6.15450000      3.46220000       3     -0.08920342      0.11947050     -0.12894771      -1       0       0      20
 Li              1.13107000      2.69508000      2.30925000       3      0.33043850     -0.29756388     -0.45716061       0       0       0      13
 Li             13.01238000      1.72509000      7.97342000       3     -0.83529497      0.01775394      0.27977667      -1       0       0      18
 Li             13.09626000      4.79944000     10.93998000       3     -0.12057667     -0.09341022     -0.02881629      -1       0      -1      18
 Li             10.10239000      0.07068000     15.24433000       3     -0.19439072      0.04995182     -0.06657481      -1       0      -1      17
 Li              9.67349000      5.02373000     11.58956000       3     -0.10930400     -0.35869104     -0.00669086      -1       0      -1      19
 Li             13.92936000      2.94769000     13.63287000       3     -0.12910736     -0.01100259     -0.20747967      -1       0      -1      16
 Li             11.94119000      5.29714000     14.16972000       3     -0.02495185      0.09773262     -0.35056584      -1       0      -1      20
 Li              7.62715000      3.53298000      5.65536000       3      0.07093801     -0.59692416      0.00639098       0       0       0      22
 Li              3.95631000      0.35800000     12.23520000       3     -0.12485919     -0.03005154     -0.07859417       0       0      -1      17
 Li              5.07894000      1.54738000      5.70916000       3      0.00451449     -0.42716086      0.25905406       0       0       0      16
 Li             15.75188000      2.98294000     10.40722000       3      0.30715800     -0.18539996      0.05634135      -1       0      -1      13
 Li              6.77569000      0.62835000      8.56390000       3     -0.33841650     -0.11506377     -0.23476863       0       0      -1      19
 Li             15.12196000      5.14316000      6.75199000       3     -0.13971579      0.18700012      0.37979184      -1       0       0      19
 Li              5.98781000      6.86235000      6.47423000       3      0.13937257      0.12001728     -0.60649848       0       0       0      21
 Li              0.29494000      3.41595000      4.63394000       3     -0.38589738      0.34488742      0.09439598       0       0       0      14
 Li              2.85243000      4.23303000      5.13669000       3      0.13713899      0.12865930     -0.15432946       0       0       0      18
 Li             15.62528000      6.47237000      3.68347000       3     -0.01751865     -0.16610160     -0.00920554      -1       0       0      22
 Li              2.40433000      7.50197000      5.51897000       3     -0.29919213      0.13813215     -0.82891975       0       0       0      20
 Li              4.50323000      7.80040000      3.25985000       3      0.01173221      0.23248820     -0.12729703       0       0       0      21
 Li             12.68840000      9.93866000      5.14715000       3     -0.26410106     -0.03292579      0.06081063      -1      -1       0      21
 Li              1.82910000      9.55175000      1.38224000       3      0.06780368     -0.20402692     -0.34049419       0      -1       0      19
 Li             12.97921000      7.52688000      2.02935000       3      0.24187637      0.09114573     -0.36269964      -1       0       0      18
 Li              0.87747000     11.52420000      4.74839000       3     -0.00673890     -0.31848112      0.39020843       0      -1       0      19
 Li             15.07322000     10.54885000      1.00939000       3      0.09478832      0.06211514     -0.22597431      -1      -1       0      16
 Li              1.94089000      6.44879000      7.78690000       3     -0.01466486     -0.31429523      0.08620428       0       0       0      16
 Li              6.89613000      0.38198000     12.39074000       3     -0.09739234     -0.14106780     -0.17631749       0       0      -1      19
 Li              5.13320000     15.47146000     15.02832000       3      0.07627696      0.15726779      0.25262080       0      -1      -1      18
 Li              5.79397000     14.61137000     10.55757000       3     -0.24224655     -0.02756174      0.25367127       0      -1      -1      18
 Li              1.24740000     13.48552000     11.84515000       3      0.07304871     -0.28228811      0.18570946       0      -1      -1      16
 Li              3.33374000     13.79009000     14.09493000       3     -0.20441740      0.11963989     -0.03183324       0      -1      -1      16
 Li              4.93800000     12.17422000     12.02700000       3      0.39069600      0.02750658      0.26034859       0      -1      -1      18
 Li              0.78891000     13.38084000      7.38036000       3      0.75010164     -0.04236416      0.37866433       0      -1       0      21
 Li             14.24297000     14.97139000      7.96425000       3      0.14028186     -0.82635123      0.15804182      -1      -1       0      16
 Li             13.72001000     13.15439000      4.58843000       3      0.18652060      0.25105926     -0.01440778      -1      -1       0      21
 Li             14.39220000     11.86939000      8.71705000       3     -0.00027084      0.09663902     -0.23415232      -1      -1      -1      18
 Li             12.55069000     12.69310000      7.01004000       3      0.22966206     -0.25551022      0.13563599      -1      -1       0      19
 Li             12.15115000      1.47290000     11.63703000       3      0.04316528      0.20344772     -0.58646487      -1       0      -1      20
 Li              0.07401000      5.44489000     14.18265000       3     -0.21824797      0.36512901      0.00191063       0       0      -1      17
 Li              6.19034000      2.85216000     14.37949000       3      0.08013018      0.00935821      0.01824885       0       0      -1      19
 Li              1.98336000      2.79921000     13.82235000       3      0.28534719      0.05168836      0.04651509       0       0      -1      13
 Li              4.48674000      5.50424000     12.79041000       3      0.11706630     -0.22507279     -0.11982540       0       0      -1      18
 Li              1.74788000     14.21065000      1.07561000       3     -0.63770789     -0.17812625      0.15256661       0      -1       0      13
 Li              3.24116000      7.38833000     15.73340000       3      0.07291949      0.06914811      0.10871105       0       0      -1      18
 Li              9.44765000      6.95885000      6.64900000       3     -0.05096812      0.33649200     -0.20971560      -1       0       0      19
 Li              8.35397000      9.11766000      2.05678000       3     -0.25083651      0.18030542      0.07865843      -1      -1       0      18
 Li             11.20203000      3.67240000      5.18485000       3      0.52176112     -0.24720423     -0.25503394      -1       0       0      19
 Li              8.44317000      9.25708000      5.03214000       3      0.13726642      0.28482660      0.52664952      -1      -1       0      21
 Li              6.97257000     11.55453000      4.04472000       3     -0.13658711      0.14734353      0.19500867       0      -1       0      18
 Li             12.36980000      6.92374000      5.79273000       3     -0.55535331      0.19483343      0.30384356      -1       0       0      20
 Li             13.29773000      0.59330000      4.10074000       3     -0.01926536      0.56614628      0.42429764      -1       0       0      18
 Li              8.30761000     13.88369000      2.12055000       3     -0.02651347     -0.54947342      0.14521932      -1      -1       0      16
 Li             10.47639000     10.77487000      6.65422000       3     -0.09276446     -0.23527740      0.30646401      -1      -1       0      21
 Li             11.40059000     14.99765000      5.27347000       3     -0.33468741      0.11532629      0.11468522      -1      -1       0      21
 Li              7.57323000      0.24028000      4.13925000       3      0.27424880      0.06604046      0.20466106       0       0       0      19
 Li              8.78386000     15.23675000      6.15196000       3     -0.10660370     -0.12415962      0.00983175      -1      -1       0      21
 Li              6.33501000      3.54918000     11.54527000       3     -0.04801608      0.15618531      0.90203959       0       0      -1      17
 Li             13.15044000      8.49074000      9.31102000       3      0.15986143      0.16250237     -0.26727779      -1      -1      -1      17
 Li              9.43241000      1.63599000     12.13643000       3     -0.25272813     -0.10418844     -0.23259695      -1       0      -1      21
 Li              3.41869000      3.05623000     10.61156000       3      0.09457060     -0.19282856     -0.30173973       0       0      -1      15
 Li              9.25696000      1.82962000      7.70899000       3      0.18925367     -0.82323415      0.45719910      -1       0       0      21
 Li              9.98223000      3.06517000     14.31811000       3     -0.17914393      0.11902308     -0.11569396      -1       0      -1      17
 P              11.29232000     14.96281000      9.29969000      15     -1.05553246     -0.00872289      0.29929245      -1      -1      -1      20
 P              10.14618000     11.11906000     10.29718000      15     -0.36989179     -0.30098501     -0.83153837      -1      -1      -1      19
 P               5.56117000      4.57551000      3.77832000      15     -0.11135304      0.75341624     -0.85238159       0       0       0      16
 P               3.38755000     15.29258000      8.54028000      15      0.80617152      0.17407685     -0.61549440       0      -1      -1      16
 P              14.89037000      9.10300000      6.12584000      15      0.46104486      0.27698828     -0.27289558      -1      -1       0      23
 P              14.53632000      7.07062000     11.88107000      15     -0.07395693      0.56874543      0.14350606      -1       0      -1      18
 P               8.34670000      5.24107000      9.26380000      15     -0.37586221     -0.00974074     -0.71016316      -1       0      -1      19
 P               1.57457000      9.76057000      8.55431000      15      0.35858347     -0.48056916     -0.43314714       0      -1      -1      17
 P               9.71069000      1.77634000      4.15864000      15      0.32713274     -0.32119595     -0.66860922      -1       0       0      18
 P              12.50175000      0.05878000     13.98573000      15      0.16515928      0.05208441      0.24055472      -1       0      -1      16
 P              14.58563000     13.65375000      1.87707000      15      0.08450905     -0.05643056     -0.33407836      -1      -1       0      15
 P               5.51435000      8.44042000      0.80829000      15     -0.73218581      0.78541980     -0.10865910       0      -1       0      21
 P              13.63811000      4.13869000      3.08678000      15     -0.44878928     -0.24382697      0.24994460      -1       0       0      17
 P              10.79808000      7.52122000     16.16855000      15      0.99591520     -0.98698115      0.80996005      -1       0      -1      16
 P               4.26959000     10.68625000      4.35858000      15     -0.15941396     -0.35207329     -0.43692793       0      -1       0      20
 P               7.99492000      6.55256000     13.77050000      15     -0.77578766     -0.16795326      0.66285019       0       0      -1      19
 S              11.19668000      0.91787000      9.35565000      16     -0.02514429      0.10231377     -0.20825255      -1       0      -1      18
 S              10.75599000     14.07601000      7.49997000      16      0.09809103      0.21055041     -0.27549560      -1      -1       0      25
 S               9.57746000     14.16845000     10.60053000      16      0.63478058     -0.11681878     -0.13513711      -1      -1      -1      19
 S              12.88209000     14.18826000     10.14070000      16      0.46861185     -0.25141373     -0.12621277      -1      -1      -1      19
 S              10.97680000     10.90014000     12.08509000      16     -0.47241261      0.05908007     -0.11720073      -1      -1      -1      16
 S              11.58722000     12.10819000      4.91944000      16      0.50087426     -0.28414524      0.12139872      -1      -1       0      21
 S               8.09409000     15.52868000     10.23821000      16     -0.29539002     -0.05330022      0.26921522      -1      -1      -1      19
 S               8.15533000     11.11326000      7.02389000      16     -0.03262489      0.16217593     -0.50942866      -1      -1       0      20
 S               6.73530000      6.46614000      3.10482000      16     -0.28998715     -0.45941331     -0.30300774       0       0       0      20
 S               5.54675000      4.66035000      5.80705000      16     -0.19171619     -0.32110576     -0.10561722       0       0       0      19
 S               2.07933000      2.13107000      4.34041000      16      0.44380049     -0.09495368     -0.04193815       0       0       0      14
 S               3.75889000      5.51781000      3.07237000      16     -0.06365960     -0.35425914      0.17496439       0       0       0      23
 S               3.96605000     15.46216000      6.46841000      16     -0.46429564      0.36475517      0.32574092       0      -1       0      17
 S               4.45593000      0.69528000      9.53792000      16     -0.09283040     -0.25975102      0.10247977       0       0      -1      20
 S               4.24728000     13.44739000      9.02580000      16     -0.45935416      0.20812977      0.54879125       0      -1      -1      22
 S               1.36240000     15.36905000      8.78877000      16      0.13114239     -0.09660016     -0.23228246       0      -1      -1      15
 S              14.28166000      7.45039000      7.18654000      16     -0.28859386     -0.09230028     -0.14429691      -1       0       0      19
 S              10.73455000      8.54574000      4.98987000      16      0.15942068      0.11525405      0.50727580      -1      -1       0      22
 S               0.99903000      9.46644000      6.36679000      16      0.18186265      0.32884919     -0.29980275       0      -1       0      18
 S              10.79828000      5.06533000      6.93895000      16      0.47055969      0.38962285      0.31264188      -1       0       0      22
 S              13.81328000      6.85823000     13.87435000      16     -0.02071634     -0.43775961      0.05333170      -1       0      -1      21
 S               0.59420000      7.30204000     12.31078000      16     -0.22761886     -0.69778628      0.15535767       0       0      -1      18
 S              13.86260000      9.11868000     11.49810000      16     -0.03584269     -0.63860854      0.44261156      -1      -1      -1      20
 S              10.86963000      7.68485000      9.10651000      16      0.29926901     -0.22558052     -0.11695048      -1       0      -1      20
 S               9.40107000      9.09905000      9.44140000      16      0.15086657      1.13976057      0.59685165      -1      -1      -1      18
 S               7.42500000      6.89301000      8.36090000      16      0.54189201     -0.07004577      0.53276994       0       0      -1      21
 S               6.72005000      3.80671000      9.35729000      16      0.02969991      0.14050545     -0.35511476       0       0      -1      20
 S               9.12534000      4.10932000      7.47140000      16      0.07122683      0.24833525      0.50653031      -1       0       0      21
 S               0.65528000     11.44619000      9.24286000      16      0.13529051      0.31441169      0.36866146       0      -1      -1      18
 S               5.65268000     10.39309000      9.49878000      16     -0.09984719      0.08505014      0.55348553       0      -1      -1      18
 S               0.82881000      8.03845000      9.35962000      16      0.13809393     -0.18005604      0.31920350       0       0      -1      19
 S               2.67351000     11.71129000     12.71077000      16     -0.24986256      0.35539213     -0.17547037       0      -1      -1      17
 S               7.40758000      1.09162000      6.36921000      16     -0.25568475      0.08965107     -0.11189147       0       0       0      21
 S              11.23104000      1.62001000      2.44488000      16     -0.11579181     -0.01139698      0.10605752      -1       0       0      16
 S              11.05724000      1.30282000      5.77820000      16     -0.40526953      0.51539984     -0.03117200      -1       0       0      21
 S               9.28151000      3.79922000      3.90484000      16     -0.08463836     -0.30200899      0.07329268      -1       0       0      21
 S              12.12160000      1.52464000     15.44392000      16      0.24914192     -0.21030811     -0.17479729      -1       0      -1      16
 S              10.82070000     15.91382000     12.85320000      16     -0.02653020     -0.48477756     -0.07234138      -1      -1      -1      20
 S              12.66727000     14.31149000     14.92224000      16     -0.15588614      0.08696466     -0.44487561      -1      -1      -1      14
 S              14.12785000      0.57774000     12.83973000      16     -0.16276570      0.15165697      0.21406279      -1       0      -1      15
 S              13.11838000     15.00361000      2.75048000      16     -0.27794120     -1.13196414     -0.70620182      -1      -1       0      15
 S              14.64957000      9.34422000      3.89183000      16     -0.13415375     -0.29757470      0.54832093      -1      -1       0      18
 S              15.47111000     14.87397000      0.36708000      16      0.22124250     -0.22527965      0.10750461      -1      -1       0      13
 S              13.33006000     12.18140000      0.95774000      16      0.18241191     -0.03482744     -0.06833300      -1      -1       0      18
 S               5.90461000      9.34325000      4.60745000      16     -0.52202841      0.32414856      0.14138872       0      -1       0      18
 S               7.29485000      9.10126000     16.31850000      16     -0.39159730      0.33914289      0.26208218       0      -1      -1      20
 S               3.92274000      9.74185000     16.16338000      16      0.05078165     -0.64880285      0.53710404       0      -1      -1      19
 S               5.25897000      6.59639000     16.27719000      16      0.44839890     -0.70638692      0.31677407       0       0      -1      18
 S              13.87263000      2.86177000      4.59744000      16      0.05491919      0.34632005      0.38448383      -1       0       0      21
 S              11.95510000      3.46771000      1.88411000      16     -0.24957640     -0.04424972     -0.23676099      -1       0       0      15
 S              15.31915000      4.26614000      2.08909000      16      0.55586191      0.61020242     -0.30129583      -1       0       0      15
 S              12.89274000      5.96828000      3.77427000      16      0.47205550      0.08058949     -0.18099717      -1       0       0      22
 S              10.53443000      8.09693000      1.74352000      16     -0.12084685     -0.51547452     -0.80117841      -1      -1       0      17
 S               9.39344000      5.94719000     15.42523000      16      0.30449906      0.52613293      0.22386605      -1       0      -1      16
 S              12.47233000      6.24157000     16.35313000      16     -0.02134518      0.55031718      0.10774260      -1       0      -1      17
 S              11.12837000      9.09185000     15.02254000      16     -0.01673801      0.29050187      0.22588216      -1      -1      -1      21
 S               2.71055000      9.51776000      3.53929000      16      0.22998501     -0.00364065      0.84468672       0      -1       0      19
 S               4.83122000     12.17440000      3.04423000      16     -0.25515253     -0.03521250     -0.03671040       0      -1       0      21
 S               7.49334000     13.00133000      6.13030000      16     -0.46019052     -0.07134009      0.18355201       0      -1       0      25
 S               3.71268000     11.57747000      6.16337000      16     -0.06270802     -0.45651279     -0.10201998       0      -1       0      22
 S               7.92708000      4.49692000     13.20071000      16      0.13984397     -0.07026177      0.06408087       0       0      -1      20
 S              11.23204000      6.43199000     10.67516000      16      0.24046028      0.29317145      0.01158353      -1       0      -1      18
 S               8.10480000      1.19785000     14.03823000      16      0.34207285      0.20152553      0.35501293      -1       0      -1      18
 S               8.89866000      7.74589000     12.46517000      16      0.24259047      0.23006882     -0.61247718      -1       0      -1      20
 S               8.82923000     11.42262000      2.64627000      16     -0.06715798     -0.02343550     -0.23075077      -1      -1       0      19
 S               3.69871000     14.51312000      0.06266000      16      0.29226582      0.16179823     -0.40635262       0      -1       0      13
 S               7.01543000     11.73935000     10.31641000      16      0.06292866     -0.13043996      0.45115773       0      -1      -1      19
 S              15.54825000      9.94907000     15.01174000      16      0.30316419      0.26041667     -0.21404551      -1      -1      -1      18
 S               3.56252000      7.56881000     13.49947000      16     -0.12448009     -0.15054120     -0.42976866       0       0      -1      18
 S               5.95754000      2.88359000      0.34739000      16     -0.33589064      0.74513143      0.02905437       0       0       0      15
 S              11.65708000      3.60325000     12.43264000      16     -0.20845257      0.06494890      0.31602586      -1       0      -1      18
 S               4.30418000      2.93139000     12.71742000      16     -0.30281969     -0.15888394      0.44458929       0       0      -1      20
 S               0.93377000      5.61060000      5.50305000      16      0.54450022     -0.03984111      0.02192260       0       0       0      18
 S              15.44590000      8.43886000      2.10144000      16      0.19091956     -0.16308895      0.06423107      -1      -1       0      17
 S               5.46734000     14.55722000     13.06877000      16      0.14677858      0.10931985     -0.48074188       0      -1      -1      18
 S              14.86049000     13.02596000      6.60525000      16     -1.02507824     -0.04164809      0.55670533      -1      -1       0      18
 S              15.98397000      3.51255000     12.68763000      16     -0.06335956     -0.10130709      0.45814306      -1       0      -1      17
 S               8.29314000      6.95364000      4.29628000      16     -0.10158253      0.01312684      0.14002710      -1       0       0      21
 S               9.46715000     14.83071000      3.82928000      16     -0.04592919      0.04017611      0.59054888      -1      -1       0      19
 S               7.72742000      2.09111000     10.11822000      16      0.42865702      0.17998698     -0.17662173       0       0      -1      19
 Cl              8.51599000     14.99932000      0.12919000      17      0.16245546      0.03302545     -0.18549606      -1      -1       0      15
 Cl              5.92517000     16.04154000      2.67224000      17     -0.30776161      0.21604763     -0.11533903       0      -1       0      16
 Cl              4.00848000      7.49536000      7.03816000      17     -0.54063831      0.13493457      0.60409759       0       0       0      21
 Cl              8.53678000     12.12303000     14.56353000      17     -0.03365389     -0.03117887     -0.04859217      -1      -1      -1      14
 Cl              5.94434000     10.08317000     13.00469000      17      0.24442916      0.46298114      0.45168484       0      -1      -1      17
 Cl              2.27517000      2.75781000      0.07591000      17     -0.10219928      0.05514999      0.13958425       0       0       0      13
 Cl             14.09355000      3.39417000      8.93116000      17      0.06922328      0.59834798      0.26961954      -1       0      -1      14
 Cl              1.78077000      4.03599000      9.41221000      17     -0.37585225      0.19632633     -0.00167517       0       0      -1      14