 208
 energy=-829.06006932798482 cutoff=4.00000000 nneightol=1.20000000 pbc="T T T" Lattice="16.02608200       0.00000000       0.00000000       0.00000000      16.10000000       0.00000000       0.00000000       0.00000000      16.42536700" Properties=species:S:1:pos:R:3:Z:I:1:force:R:3:map_shift:I:3:n_neighb:I:1
 Li             11.00250000     13.18964000      2.94742000       3      0.40838649      0.31801028     -0.06575923      -1      -1       0      20
 Li              9.30362000     10.67987000      0.04896000       3     -0.16656771      0.49573487      0.47697863      -1      -1       0      15
 Li             10.81349000     10.33177000      3.37657000       3     -0.04441592     -0.18092115      0.05392507      -1      -1       0      19
 Li             13.15758000     15.74690000      0.32036000       3     -0.51035240      0.47262951      0.56264552      -1      -1       0      15
 Li              9.34468000     12.62902000      4.74908000       3      0.30905274      0.37200347     -0.90661705      -1      -1       0      20
 Li             14.41329000     12.09687000     14.99582000       3      0.28799570     -0.06328382      0.58190267      -1      -1      -1      17
 Li              3.88291000      0.82021000      0.99694000       3     -0.18955847      0.11598340     -0.27876781       0       0       0      12
 Li              3.51189000     13.46375000      4.78429000       3     -0.47071230      0.82289120     -0.09305707       0      -1       0      18
 Li              1.66838000      0.38732000      5.72599000       3      1.56716608     -1.17513277      0.21023793       0       0       0      13
 Li              3.80284000     12.07923000      0.70480000       3     -0.03605835      0.02096868      0.74227118       0      -1       0      15
 Li              1.58611000     11.26237000     14.83608000       3     -0.54181187      0.34777289      0.00121708       0      -1      -1      20
 Li              5.20839000     13.41938000      6.89510000       3      1.54902812     -0.46816498     -0.01421652       0      -1       0      22
 Li              5.94260000      7.92843000      9.98715000       3      1.98141406     -0.73220734      0.19560937       0       0      -1      18
 Li              8.40272000     12.93929000      8.56163000       3      0.80291801      0.73035779     -0.03792017      -1      -1      -1      20
 Li             11.87538000     13.33778000     12.66095000       3     -0.15486963      0.60055900     -0.63194827      -1      -1      -1      16
 Li              5.64050000     10.25414000      7.13072000       3      0.31187151     -0.08307152     -1.63278974       0      -1       0      18
 Li             11.36417000      8.41338000     12.57133000       3      0.09589678     -0.54280059      0.09193458      -1      -1      -1      20
 Li              2.93608000     11.44878000     10.16045000       3     -0.19732627      0.32357674      0.86951268       0      -1      -1      20
 Li             15.19932000     14.95957000     14.21724000       3      0.10302868     -0.46024757     -0.21716336      -1      -1      -1      16
 Li             14.98237000      7.77488000     15.97478000       3     -0.40882390      0.15783075     -0.43689862      -1       0      -1      21
 Li              2.81336000      7.30072000     11.17077000       3     -0.92133494      1.33412471     -0.41914642       0       0      -1      19
 Li              7.89407000     14.46908000     14.38025000       3     -0.93303677      0.00605818     -0.76416699       0      -1      -1      18
 Li             15.86514000     10.36498000     12.44891000       3     -0.29378769     -0.40129965      0.24551592      -1      -1      -1      20
 Li             13.51755000      9.27848000     14.00004000       3      0.07502985     -0.36891824      0.41314332      -1      -1      -1      18
 Li              5.74938000      7.92622000     14.24095000       3     -0.08404400     -0.00406531     -0.10560752       0       0      -1      19
 Li              1.25236000      8.32558000     14.27264000       3      0.02083978     -0.06602131     -0.24538647       0      -1      -1      20
 Li              3.83204000      9.88767000     13.44203000       3     -0.61632149     -0.25925841      0.29606789       0      -1      -1      21
 Li              6.63030000     11.04920000     15.09002000       3     -0.24854425     -0.42524057      0.89438020       0      -1      -1      15
 Li              1.10111000      4.93236000     11.59199000       3      0.17091540      0.74343726     -0.14358032       0       0      -1      20
 Li              8.12820000     10.55603000     12.29651000       3      0.47456373     -0.11320209      0.62479270      -1      -1      -1      21
 Li              4.04969000      4.49724000      0.80039000       3     -0.03188035     -0.08819842     -0.06491620       0       0       0      16
 Li              5.85818000      2.31195000      2.44189000       3      0.27032811     -0.59262601      0.92750109       0       0       0      19
 Li              7.27945000      1.02377000      0.03332000       3      0.05576522     -0.30788622     -0.32821952       0       0       0      16
 Li              6.98258000      5.01454000      0.97946000       3     -0.05336031     -0.02322640     -0.62024339       0       0       0      20
 Li             10.51579000      6.15450000      3.46220000       3      0.13751564      0.39176505     -0.67657205      -1       0       0      20
 Li              1.13107000      2.69508000      2.30925000       3      0.40879111     -1.03557340     -1.35972864       0       0       0      13
 Li             13.01238000      1.72509000      7.97342000       3     -0.94172922     -0.26519690      0.15908699      -1       0       0      18
 Li             13.09626000      4.79944000     10.93998000       3     -0.53507277     -0.00408875      0.31051857      -1       0      -1      18
 Li             10.10239000      0.07068000     15.24433000       3      0.09475583      0.43316926     -0.00961861      -1       0      -1      17
 Li              9.67349000      5.02373000     11.58956000       3     -0.51431521     -0.85376930     -0.08251935      -1       0      -1      19
 Li             13.92936000      2.94769000     13.63287000       3     -0.25726904      0.04396634     -0.36437948      -1       0      -1      16
 Li             11.94119000      5.29714000     14.16972000       3      0.29527347     -0.37726332     -0.23519969      -1       0      -1      20
 Li              7.62715000      3.53298000      5.65536000       3      0.71206502     -0.37667258      0.26061865       0       0       0      22
 Li              3.95631000      0.35800000     12.23520000       3     -0.41905737     -0.41112497     -0.01290661       0       0      -1      17
 Li              5.07894000      1.54738000      5.70916000       3     -0.17747895     -0.00768879      0.29436602       0       0       0      16
 Li             15.75188000      2.98294000     10.40722000       3      0.14743409     -0.07746222      0.44716833      -1       0      -1      13
 Li              6.77569000      0.62835000      8.56390000       3     -0.40392886     -0.60984868     -0.43482158       0       0      -1      19
 Li             15.12196000      5.14316000      6.75199000       3     -0.28663869      0.84577519      0.64424723      -1       0       0      19
 Li              5.98781000      6.86235000      6.47423000       3      0.77337680     -0.45499253     -0.85256281       0       0       0      21
 Li              0.29494000      3.41595000      4.63394000       3     -0.35639232      0.48246312      0.55887774       0       0       0      14
 Li              2.85243000      4.23303000      5.13669000       3      0.51363629      0.69424671      0.17235617       0       0       0      18
 Li             15.62528000      6.47237000      3.68347000       3      0.03539830      0.05045405     -0.14577891      -1       0       0      22
 Li              2.40433000      7.50197000      5.51897000       3     -1.14669440      1.04879206     -1.35855157       0       0       0      20
 Li              4.50323000      7.80040000      3.25985000       3     -0.51885221      0.47642421     -0.49495517       0       0       0      21
 Li             12.68840000      9.93866000      5.14715000       3     -0.65754389     -0.28457158      0.29566637      -1      -1       0      21
 Li              1.82910000      9.55175000      1.38224000       3      0.82915099      0.21180666      0.07387426       0      -1       0      19
 Li             12.97921000      7.52688000      2.02935000       3     -0.09272956     -0.23456079     -0.70450432      -1       0       0      18
 Li              0.87747000     11.52420000      4.74839000       3      0.64196243     -0.28252497      0.17442431       0      -1       0      19
 Li             15.07322000     10.54885000      1.00939000       3      0.28541724      0.28223533     -0.49027092      -1      -1       0      16
 Li              1.94089000      6.44879000      7.78690000       3     -0.13498395      0.01100234      0.27188917       0       0       0      16
 Li              6.89613000      0.38198000     12.39074000       3     -0.27343208     -0.40458819     -0.71577119       0       0      -1      19
 Li              5.13320000     15.47146000     15.02832000       3     -0.00937101     -0.33869274      0.35932351       0      -1      -1      18
 Li              5.79397000     14.61137000     10.55757000       3     -0.40356848      0.06364551      0.50019449       0      -1      -1      18
 Li              1.24740000     13.48552000     11.84515000       3      0.07122638     -0.10519310      0.69582469       0      -1      -1      16
 Li              3.33374000     13.79009000     14.09493000       3      0.12330953      0.31202893     -0.10339357       0      -1      -1      16
 Li              4.93800000     12.17422000     12.02700000       3      0.38722885      0.25932016     -0.06549238       0      -1      -1      18
 Li              0.78891000     13.38084000      7.38036000       3     -0.03827360     -1.09997495      0.14190803       0      -1       0      21
 Li             14.24297000     14.97139000      7.96425000       3      0.98535987     -0.72952098      0.59917951      -1      -1       0      16
 Li             13.72001000     13.15439000      4.58843000       3      0.25194337     -0.16018273      0.00944626      -1      -1       0      21
 Li             14.39220000     11.86939000      8.71705000       3      0.40174656     -0.02147632     -0.69369954      -1      -1      -1      18
 Li             12.55069000     12.69310000      7.01004000       3      0.43919439     -0.27159451      0.35983541      -1      -1       0      19
 Li             12.15115000      1.47290000     11.63703000       3     -0.46549831      1.01389349     -0.09250386      -1       0      -1      20
 Li              0.07401000      5.44489000     14.18265000       3     -0.47736299      0.19403068     -0.01622479       0       0      -1      17
 Li              6.19034000      2.85216000     14.37949000       3      0.30149881      0.33476110     -0.42288523       0       0      -1      19
 Li              1.98336000      2.79921000     13.82235000       3      0.28729178     -0.40013031      0.02442245       0       0      -1      13
 Li              4.48674000      5.50424000     12.79041000       3      0.57546709     -0.27617945      0.28197977       0       0      -1      18
 Li              1.74788000     14.21065000      1.07561000       3     -0.65466004      0.10991895     -0.09190999       0      -1       0      13
 Li              3.24116000      7.38833000     15.73340000       3      0.01611249     -0.20567604     -0.07233694       0       0      -1      18
 Li              9.44765000      6.95885000      6.64900000       3     -0.65630989      0.31513623     -0.69877701      -1       0       0      19
 Li              8.35397000      9.11766000      2.05678000       3     -0.35293254      0.64992360      0.28434416      -1      -1       0      18
 Li             11.20203000      3.67240000      5.18485000       3      1.42541486      0.35953420     -1.09644947      -1       0       0      19
 Li              8.44317000      9.25708000      5.03214000       3     -0.02205664      1.01430651      0.52055671      -1      -1       0      21
 Li              6.97257000     11.55453000      4.04472000       3      0.10504133      0.15954605      0.09440641       0      -1       0      18
 Li             12.36980000      6.92374000      5.79273000       3     -0.57794062      0.57601293      0.82729679      -1       0       0      20
 Li             13.29773000      0.59330000      4.10074000       3     -0.33481267      1.15252649      0.41784007      -1       0       0      18
 Li              8.30761000     13.88369000      2.12055000       3     -0.10725373     -1.01403749      0.04174655      -1      -1       0      16
 Li             10.47639000     10.77487000      6.65422000       3      0.12531599     -0.44079673      0.24360846      -1      -1       0      21
 Li             11.40059000     14.99765000      5.27347000       3     -0.65404144      0.24255402      0.11928695      -1      -1       0      21
 Li              7.57323000      0.24028000      4.13925000       3      0.53713351      0.78368338     -0.14456935       0       0       0      19
 Li              8.78386000     15.23675000      6.15196000       3      0.27441789     -0.62591272      0.41735745      -1      -1       0      21
 Li              6.33501000      3.54918000     11.54527000       3     -0.59266150      0.06168664      1.59310043       0       0      -1      17
 Li             13.15044000      8.49074000      9.31102000       3     -0.21559898      0.63834053     -1.10269333      -1      -1      -1      17
 Li              9.43241000      1.63599000     12.13643000       3      0.17566601     -0.08704044     -0.02528407      -1       0      -1      21
 Li              3.41869000      3.05623000     10.61156000       3      0.41451789     -0.06655114     -0.65789948       0       0      -1      15
 Li              9.25696000      1.82962000      7.70899000       3      0.16704894     -0.79204168      0.07949542      -1       0       0      21
 Li              9.98223000      3.06517000     14.31811000       3     -0.36080090     -0.26192360     -0.87897985      -1       0      -1      17
 P              11.29232000     14.96281000      9.29969000      15     -0.64413056      0.11938372      0.51014466      -1      -1      -1      20
 P              10.14618000     11.11906000     10.29718000      15     -1.13289319      0.73091954     -0.96954282      -1      -1      -1      19
 P               5.56117000      4.57551000      3.77832000      15      0.10896395      1.82909735      0.33702138       0       0       0      16
 P               3.38755000     15.29258000      8.54028000      15      1.69069700      0.54437458     -2.03196973       0      -1      -1      16
 P              14.89037000      9.10300000      6.12584000      15      0.71300980      0.70094896      1.23030998      -1      -1       0      23
 P              14.53632000      7.07062000     11.88107000      15      1.52967601      1.40039989      0.58104732      -1       0      -1      18
 P               8.34670000      5.24107000      9.26380000      15     -2.87632152      0.62205123     -0.17973595      -1       0      -1      19
 P               1.57457000      9.76057000      8.55431000      15      1.68224390     -0.95459036     -0.57061836       0      -1      -1      17
 P               9.71069000      1.77634000      4.15864000      15      1.21897565      0.10667046     -1.72696988      -1       0       0      18
 P              12.50175000      0.05878000     13.98573000      15     -0.92093831     -0.17884300     -0.14440917      -1       0      -1      16
 P              14.58563000     13.65375000      1.87707000      15     -0.41566589      0.37272283      0.29109790      -1      -1       0      15
 P               5.51435000      8.44042000      0.80829000      15      0.21039307      0.43365561     -0.21988470       0      -1       0      21
 P              13.63811000      4.13869000      3.08678000      15     -1.23760420     -0.09123093      0.40695407      -1       0       0      17
 P              10.79808000      7.52122000     16.16855000      15      0.63308314     -1.84464908     -0.15397987      -1       0      -1      16
 P               4.26959000     10.68625000      4.35858000      15     -0.92967959     -0.47017581     -1.31174587       0      -1       0      20
 P               7.99492000      6.55256000     13.77050000      15     -1.33910647     -0.04554810      2.27908281       0       0      -1      19
 S              11.19668000      0.91787000      9.35565000      16     -0.40285322     -0.29110752     -1.11738012      -1       0      -1      18
 S              10.75599000     14.07601000      7.49997000      16     -0.42513018      0.86664228      0.08518448      -1      -1       0      25
 S               9.57746000     14.16845000     10.60053000      16      0.29244643     -0.76458799     -0.02449237      -1      -1      -1      19
 S              12.88209000     14.18826000     10.14070000      16      1.29898324     -1.37827692     -0.47257466      -1      -1      -1      19
 S              10.97680000     10.90014000     12.08509000      16     -1.13012618      0.75766998     -2.09184770      -1      -1      -1      16
 S              11.58722000     12.10819000      4.91944000      16      0.10253752     -1.15344305      0.21238585      -1      -1       0      21
 S               8.09409000     15.52868000     10.23821000      16     -1.69750609     -0.72755167      1.07509247      -1      -1      -1      19
 S               8.15533000     11.11326000      7.02389000      16     -0.60033677     -0.23509324     -0.27565426      -1      -1       0      20
 S               6.73530000      6.46614000      3.10482000      16     -0.86202349      0.05246977     -0.52306519       0       0       0      20
 S               5.54675000      4.66035000      5.80705000      16      0.53124688     -0.77474469     -0.16012929       0       0       0      19
 S               2.07933000      2.13107000      4.34041000      16      0.35698149     -0.07907397     -0.10943569       0       0       0      14
 S               3.75889000      5.51781000      3.07237000      16      0.35893119     -0.54733087      0.36272815       0       0       0      23
 S               3.96605000     15.46216000      6.46841000      16     -0.78384551      0.44082249     -0.09201147       0      -1       0      17
 S               4.45593000      0.69528000      9.53792000      16     -0.36284821      0.13035834      0.45156468       0       0      -1      20
 S               4.24728000     13.44739000      9.02580000      16      0.25816597     -0.63321479      1.52648574       0      -1      -1      22
 S               1.36240000     15.36905000      8.78877000      16      0.16400511      0.04501635     -0.46956684       0      -1      -1      15
 S              14.28166000      7.45039000      7.18654000      16      0.11519948      0.51986454     -1.71813430      -1       0       0      19
 S              10.73455000      8.54574000      4.98987000      16      0.63039251      0.04811872      1.19123596      -1      -1       0      22
 S               0.99903000      9.46644000      6.36679000      16     -0.02828000     -0.11498734     -1.59389652       0      -1       0      18
 S              10.79828000      5.06533000      6.93895000      16      0.71222807      0.67045335      0.88940584      -1       0       0      22
 S              13.81328000      6.85823000     13.87435000      16     -0.11705453     -0.63234224     -0.97562199      -1       0      -1      21
 S               0.59420000      7.30204000     12.31078000      16     -0.81727990     -1.56472954      0.02647578       0       0      -1      18
 S              13.86260000      9.11868000     11.49810000      16     -0.44514734     -1.78314178      0.32082153      -1      -1      -1      20
 S              10.86963000      7.68485000      9.10651000      16      0.65480820     -0.61385290     -0.31030182      -1       0      -1      20
 S               9.40107000      9.09905000      9.44140000      16      0.06935382      1.47740264      1.25878906      -1      -1      -1      18
 S               7.42500000      6.89301000      8.36090000      16      1.13869394     -1.39402429      0.33615907       0       0      -1      21
 S               6.72005000      3.80671000      9.35729000      16      0.13021558      0.62901720     -1.39301328       0       0      -1      20
 S               9.12534000      4.10932000      7.47140000      16      0.27489968      1.22371906      0.86109856      -1       0       0      21
 S               0.65528000     11.44619000      9.24286000      16     -0.11880317      0.40972674      0.11714080       0      -1      -1      18
 S               5.65268000     10.39309000      9.49878000      16     -0.16414206      0.43749345      0.39587912       0      -1      -1      18
 S               0.82881000      8.03845000      9.35962000      16     -0.64912932      0.32283338      1.17489367       0       0      -1      19
 S               2.67351000     11.71129000     12.71077000      16     -0.73819003      1.12117065     -0.70690158       0      -1      -1      17
 S               7.40758000      1.09162000      6.36921000      16     -0.39864118      0.11392317     -0.40242439       0       0       0      21
 S              11.23104000      1.62001000      2.44488000      16     -0.69604997     -0.53251772      0.53578977      -1       0       0      16
 S              11.05724000      1.30282000      5.77820000      16     -1.53391836      0.34257384     -0.71958573      -1       0       0      21
 S               9.28151000      3.79922000      3.90484000      16      0.09638959     -1.38529426      0.63053731      -1       0       0      21
 S              12.12160000      1.52464000     15.44392000      16      0.42238610     -0.51509787     -0.57027231      -1       0      -1      16
 S              10.82070000     15.91382000     12.85320000      16      0.10674729      0.22649524      0.10475121      -1      -1      -1      20
 S              12.66727000     14.31149000     14.92224000      16      0.78099833      0.71114075     -0.38275575      -1      -1      -1      14
 S              14.12785000      0.57774000     12.83973000      16     -0.70198725     -0.31863913      0.53735886      -1       0      -1      15
 S              13.11838000     15.00361000      2.75048000      16     -0.03750299     -1.70758815     -1.61499698      -1      -1       0      15
 S              14.64957000      9.34422000      3.89183000      16     -0.79101462     -0.93710657      0.90237457      -1      -1       0      18
 S              15.47111000     14.87397000      0.36708000      16     -0.94425591     -0.64538675      0.15039873      -1      -1       0      13
 S              13.33006000     12.18140000      0.95774000      16      1.50102293      0.25393163     -0.46291938      -1      -1       0      18
 S               5.90461000      9.34325000      4.60745000      16     -0.44815240      0.70124588      0.69197052       0      -1       0      18
 S               7.29485000      9.10126000     16.31850000      16      1.17549726     -0.84530565     -0.43956133       0      -1      -1      20
 S               3.92274000      9.74185000     16.16338000      16     -0.11346760     -0.08186894      0.69609133       0      -1      -1      19
 S               5.25897000      6.59639000     16.27719000      16      0.33496130     -0.57206732      1.47691338       0       0      -1      18
 S              13.87263000      2.86177000      4.59744000      16     -0.35859989      0.94437407      1.16029505      -1       0       0      21
 S              11.95510000      3.46771000      1.88411000      16     -0.38564628     -1.30350763      0.18079868      -1       0       0      15
 S              15.31915000      4.26614000      2.08909000      16      0.24681592      0.83233343     -0.45006676      -1       0       0      15
 S              12.89274000      5.96828000      3.77427000      16      0.94872440     -0.35469069      0.07379272      -1       0       0      22
 S              10.53443000      8.09693000      1.74352000      16     -0.80207047     -0.93040471     -0.98380413      -1      -1       0      17
 S               9.39344000      5.94719000     15.42523000      16      0.29359786      2.44676215      2.37585823      -1       0      -1      16
 S              12.47233000      6.24157000     16.35313000      16      0.51204589      1.13420464      0.97235344      -1       0      -1      17
 S              11.12837000      9.09185000     15.02254000      16      0.26369341      0.65994668      0.57206207      -1      -1      -1      21
 S               2.71055000      9.51776000      3.53929000      16      0.17822826      0.17701209      1.19931468       0      -1       0      19
 S               4.83122000     12.17440000      3.04423000      16     -0.21468789     -0.47886786     -0.03935841       0      -1       0      21
 S               7.49334000     13.00133000      6.13030000      16     -1.12651459     -1.05469998      0.48663540       0      -1       0      25
 S               3.71268000     11.57747000      6.16337000      16      0.19781317     -0.60794232      0.20080444       0      -1       0      22
 S               7.92708000      4.49692000     13.20071000      16      0.18355732     -0.24741589     -2.25018838       0       0      -1      20
 S              11.23204000      6.43199000     10.67516000      16      0.47261399      0.95756471      0.03168456      -1       0      -1      18
 S               8.10480000      1.19785000     14.03823000      16      1.44935734      0.37928141      0.94043078      -1       0      -1      18
 S               8.89866000      7.74589000     12.46517000      16      0.52790737     -0.84709323     -2.19806043      -1       0      -1      20
 S               8.82923000     11.42262000      2.64627000      16     -0.05874396      0.33946600     -0.04205884      -1      -1       0      19
 S               3.69871000     14.51312000      0.06266000      16      0.48178199     -0.23017653      0.38696882       0      -1       0      13
 S               7.01543000     11.73935000     10.31641000      16      0.47010481     -0.55844367     -0.53593270       0      -1      -1      19
 S              15.54825000      9.94907000     15.01174000      16     -0.36238317      0.33996855     -0.66700354      -1      -1      -1      18
 S               3.56252000      7.56881000     13.49947000      16     -0.62553544     -0.28204296     -0.48386943       0       0      -1      18
 S               5.95754000      2.88359000      0.34739000      16     -0.82926942      0.73119129      0.61841405       0       0       0      15
 S              11.65708000      3.60325000     12.43264000      16     -0.36005210      0.25344451      0.53852169      -1       0      -1      18
 S               4.30418000      2.93139000     12.71742000      16     -0.24807934      0.24246257      0.70526023       0       0      -1      20
 S               0.93377000      5.61060000      5.50305000      16      1.13968696      0.27110625      0.18423383       0       0       0      18
 S              15.44590000      8.43886000      2.10144000      16      0.49740887      0.06100406      0.34094247      -1      -1       0      17
 S               5.46734000     14.55722000     13.06877000      16     -0.01897541     -0.04330225     -0.85208569       0      -1      -1      18
 S              14.86049000     13.02596000      6.60525000      16     -1.50459718     -0.19134512      0.82172267      -1      -1       0      18
 S              15.98397000      3.51255000     12.68763000      16     -0.03906471     -0.20894131      0.83255193      -1       0      -1      17
 S               8.29314000      6.95364000      4.29628000      16     -0.39061867     -0.80070907     -0.28805879      -1       0       0      21
 S               9.46715000     14.83071000      3.82928000      16      0.29439180      0.38499018      0.14882316      -1      -1       0      19
 S               7.72742000      2.09111000     10.11822000      16      0.69766275      0.33561074      0.59736252       0       0      -1      19
 Cl              8.51599000     14.99932000      0.12919000      17      0.23927185     -0.15341364     -0.22506824      -1      -1       0      15
 Cl              5.92517000     16.04154000      2.67224000      17     -0.61576755      0.64670372     -0.87065997       0      -1       0      16
 Cl              4.00848000      7.49536000      7.03816000      17     -1.11361277      0.38388245      0.62811309       0       0       0      21
 Cl              8.53678000     12.12303000     14.56353000      17      0.02117481     -0.89940601      0.13455935      -1      -1      -1      14
 Cl              5.94434000     10.08317000     13.00469000      17      0.56674613     -0.17924645      0.14623665       0      -1      -1      17
 Cl              2.27517000      2.75781000      0.07591000      17      0.54386552      0.32148092      0.40228938       0       0       0      13
 Cl             14.09355000      3.39417000      8.93116000      17      0.78483456      1.20403501      0.74055699      -1       0      -1      14
 Cl              1.78077000      4.03599000      9.41221000      17     -0.26171334      0.79172323      0.11869012       0       0      -1      14