65
energy=-260.63377476 pbc="T T T" Lattice="10.25 0.0 0.0 0.0 10.25 0.0 0.0 0.0 12.35" Properties=species:S:1:pos:R:3:Z:I:1:force:R:3
Li 6.2003 9.282 12.24954 3 -0.002452 0.000863 0.001808
Li 7.6123 5.77519 7.56311 3 -0.0034 -0.000105 0.002062
Li 2.51672 1.79265 0.46496 3 -0.000197 0.00401 -0.001127
Li 1.45255 7.74107 2.56984 3 0.003144 0.000135 0.000329
Li 3.0932 2.24493 3.93777 3 -0.000164 -1.5e-05 -0.003827
Li 1.96757 0.44835 8.16852 3 -0.000768 -0.005116 0.001128
Li 7.52926 5.67911 2.66657 3 -0.000971 0.000457 0.001033
Li 5.31071 0.59971 3.71487 3 0.002293 0.001612 -0.000823
Li 10.03432 9.6555 7.08202 3 0.002752 -0.002228 -0.001933
Li 9.75566 4.23598 2.74568 3 -0.002733 -0.003418 0.001286
Li 4.34871 9.85652 6.54389 3 -0.005037 0.001225 0.001256
Li 9.05638 5.93555 0.03322 3 0.001937 -8.5e-05 0.003662
Li 0.35707 3.78223 9.03363 3 0.000969 0.002217 -0.001194
Li 3.06248 5.3641 7.32583 3 0.003214 -0.003957 -0.001213
Li 6.55451 2.23545 12.1689 3 -0.001674 0.002942 -0.000175
Li 8.9338 1.90097 10.09791 3 0.001865 -0.00282 -0.001697
Li 6.47471 5.45135 12.14666 3 -0.000847 0.001175 0.002271
Li 4.98417 4.1134 5.33879 3 0.001281 -3.1e-05 -0.00015
Li 4.73548 6.88272 1.72296 3 0.001536 0.001872 -0.000449
Li 2.16312 7.80302 10.73325 3 -0.001152 0.00232 -0.000862
Li 7.25566 2.39688 2.68491 3 0.001562 -0.004128 0.001882
Li 9.83638 7.15389 9.07193 3 0.000768 -0.002483 0.000767
Li 0.04953 3.83201 5.74072 3 0.005755 7.3e-05 0.000177
Li 9.37686 1.99217 0.54094 3 0.004383 0.000971 -0.003319
Li 7.42213 1.44352 5.49346 3 5.8e-05 -0.001144 0.003562
Li 5.52083 6.47206 9.54957 3 7.3e-05 -0.00035 0.001174
Li 6.43624 8.35404 3.14838 3 -0.002191 -0.000624 -0.000106
Li 7.06283 0.12517 9.5506 3 -0.002912 0.0039 0.002691
Li 6.18752 2.8195 7.70693 3 -0.000837 -0.000647 -9.6e-05
Li 8.85463 8.89416 0.61958 3 0.001064 0.002773 0.001022
P 2.90523 6.24528 4.1584 15 0.000692 0.001723 0.002015
P 2.92928 4.70318 10.90718 15 -0.000168 0.003206 -0.004454
P 0.97141 4.42774 12.0219 15 -9.8e-05 -0.002329 0.003794
P 2.03683 7.24987 6.03482 15 -0.005094 -5e-06 -0.00699
P 10.22008 6.35712 5.5975 15 0.004138 -0.003681 0.003806
S 3.80542 1.04789 9.9786 16 0.001449 -0.000323 -0.001463
S 3.95717 9.07225 2.66719 16 -0.001788 0.000198 0.00126
S 4.42859 9.30801 10.20867 16 -0.000566 0.002864 -0.000293
S 2.02566 9.33222 5.86266 16 0.001811 0.005526 0.003328
S 8.94771 7.55349 6.76621 16 0.003067 0.002428 -0.004624
S 0.27674 2.04323 7.33523 16 -6.4e-05 -7.2e-05 0.000833
S 5.03322 6.32211 4.16782 16 -6.5e-05 -1.2e-05 -0.000692
S 4.09906 6.29534 11.69974 16 0.000875 0.001916 0.000144
S 1.75772 4.02659 1.6958 16 -0.002133 0.000588 -0.002195
S 1.84168 5.67239 9.32097 16 -0.002868 -0.001633 0.001111
S 7.96366 3.91675 1.04639 16 -0.00078 0.004001 -0.000404
S 7.8908 5.94728 10.12986 16 -0.003002 -0.001873 -2.8e-05
S 0.81971 2.51772 11.18431 16 -0.002569 -0.001819 -0.000449
S 9.7196 6.71934 3.57402 16 0.000702 0.001694 0.004624
S 1.00736 2.1869 2.36337 16 0.000391 0.000598 -0.001917
S 8.0173 0.41611 11.71676 16 0.001368 0.000536 -0.00134
S 8.54839 1.28692 7.63975 16 -0.000952 -0.000313 -0.005226
S 5.00613 1.72601 5.71951 16 -0.000645 0.001874 -0.002815
S 7.03555 7.39839 1.0777 16 -0.00253 -0.000915 -0.005119
S 8.21805 4.09478 9.12861 16 0.00353 -0.002995 0.003933
S 4.7678 1.96551 1.71249 16 -0.000385 0.001803 0.000748
S 5.49574 2.21066 9.8788 16 -0.001544 -0.001993 0.002049
S 5.51016 8.76839 8.51719 16 -0.002467 0.001916 -0.005161
S 4.20551 0.0655 1.01087 16 0.002017 -0.000632 0.001033
S 2.51771 4.35755 5.08944 16 0.002504 -0.005664 -0.002553
Cl 5.33978 5.13341 7.53462 17 0.001145 -0.001568 0.002086
Cl 8.13171 3.59949 4.63342 17 -0.003224 -0.000542 0.001588
Cl 0.69728 9.231 9.42313 17 -0.001369 0.001552 -0.00132
Cl 7.59802 0.14993 3.50659 17 -0.00334 0.001139 -0.000598
Cl 0.67654 7.81322 0.36187 17 -3e-05 -0.00243 0.002202
65
energy=-260.63382122 pbc="T T T" Lattice="10.25 0.0 0.0 0.0 10.25 0.0 0.0 0.0 12.35" Properties=species:S:1:pos:R:3:Z:I:1:force:R:3
Li 6.20008 9.28208 12.24971 3 -0.001304 0.000897 0.001422
Li 7.612 5.77518 7.56331 3 -0.002156 0.00053 0.001906
Li 2.5167 1.79302 0.46485 3 0.000342 0.003476 -0.000982
Li 1.45284 7.74107 2.56988 3 0.002493 -3.5e-05 0.000215
Li 3.09319 2.24493 3.93741 3 4.3e-05 -2e-06 -0.003575
Li 1.9675 0.44788 8.16863 3 -0.000667 -0.004061 0.000766
Li 7.52918 5.67914 2.66666 3 -0.000721 0.000345 0.000862
Li 5.31092 0.59986 3.7148 3 0.001536 0.001306 -0.000437
Li 10.03458 9.65529 7.08184 3 0.00206 -0.001485 -0.001788
Li 9.75541 4.23566 2.7458 3 -0.002592 -0.003016 0.001246
Li 4.34825 9.85664 6.544 3 -0.003897 0.001561 0.001057
Li 9.05656 5.93554 0.03356 3 0.001385 6.4e-05 0.003077
Li 0.35716 3.78242 9.03353 3 0.000387 0.001396 -0.001025
Li 3.06277 5.36374 7.32572 3 0.001719 -0.003009 -0.000926
Li 6.55437 2.23571 12.16889 3 -0.000687 0.0023 -0.000107
Li 8.93398 1.9007 10.09775 3 0.001876 -0.002583 -0.001796
Li 6.47464 5.45145 12.14688 3 -0.000417 0.000894 0.001718
Li 4.98429 4.11339 5.33877 3 0.001266 -0.000209 -0.000398
Li 4.73562 6.88289 1.72292 3 0.001095 0.001546 -0.00051
Li 2.16301 7.80323 10.73317 3 -0.000946 0.001936 -0.000677
Li 7.25581 2.39651 2.68508 3 0.001912 -0.002789 0.000847
Li 9.83644 7.15366 9.07201 3 0.000392 -0.002125 0.000529
Li 0.05007 3.83201 5.74074 3 0.004819 -0.000104 -4e-05
Li 9.37726 1.99226 0.54063 3 0.002773 0.000954 -0.002774
Li 7.42213 1.44341 5.49379 3 -0.000115 -0.000979 0.002533
Li 5.52084 6.47203 9.54968 3 7.4e-05 -0.000115 0.001126
Li 6.43605 8.35398 3.14836 3 -0.001733 -0.000438 -0.000189
Li 7.06255 0.12552 9.55086 3 -0.003037 0.003232 0.002199
Li 6.18745 2.81943 7.70693 3 -0.000695 -0.000668 -5.6e-05
Li 8.85473 8.89441 0.61968 3 0.000615 0.002136 0.000968
P 2.90525 6.24531 4.15844 15 0.000554 0.000697 0.00101
P 2.92928 4.70325 10.90709 15 -0.0002 0.002885 -0.003131
P 0.97141 4.42769 12.02198 15 -8.7e-05 -0.001972 0.002257
P 2.03673 7.24987 6.03468 15 -0.003324 0.000122 -0.004304
P 10.22017 6.35704 5.59758 15 0.002878 -0.002547 0.002525
S 3.80545 1.04788 9.97858 16 0.000105 -0.000359 -0.001466
S 3.95713 9.07225 2.66721 16 -0.001753 0.000587 0.001163
S 4.42858 9.30806 10.20867 16 -0.000165 0.002059 -0.000918
S 2.02569 9.33233 5.86273 16 0.000961 0.004258 0.002567
S 8.94778 7.55354 6.76612 16 0.002676 0.001153 -0.003743
S 0.27674 2.04323 7.33525 16 8.7e-05 -0.000521 0.001114
S 5.03322 6.3221 4.16781 16 -8.3e-05 3.7e-05 -0.000257
S 4.09908 6.29537 11.69974 16 0.000302 0.001626 -0.000202
S 1.75768 4.02661 1.69576 16 -0.001669 0.000622 -0.001274
S 1.84162 5.67236 9.32099 16 -0.002261 -0.000756 -2.6e-05
S 7.96365 3.91683 1.04638 16 -0.000746 0.003005 0.000309
S 7.89074 5.94724 10.12986 16 -0.002507 -0.002157 0.000284
S 0.81966 2.51768 11.1843 16 -0.001553 -0.001341 -0.000785
S 9.71962 6.71937 3.57411 16 0.001018 0.001106 0.00441
S 1.00737 2.18691 2.36333 16 0.000176 0.000388 -0.001784
S 8.01733 0.41612 11.71673 16 0.000942 0.000995 -0.00093
S 8.54837 1.28691 7.63965 16 -0.000188 -0.000815 -0.004648
S 5.00612 1.72604 5.71945 16 -0.000819 0.001715 -0.002353
S 7.0355 7.39837 1.0776 16 -0.002045 0.000185 -0.00415
S 8.21813 4.09472 9.12869 16 0.003091 -0.002496 0.003675
S 4.7678 1.96554 1.7125 16 -0.000658 0.00149 0.000566
S 5.49571 2.21062 9.87884 16 -0.000934 -0.00101 0.001659
S 5.51011 8.76842 8.51708 16 -0.00297 0.002082 -0.004314
S 4.20555 0.06549 1.0109 16 0.00113 8.1e-05 0.001262
S 2.51776 4.35743 5.08938 16 0.002811 -0.004416 -0.002923
Cl 5.3398 5.13337 7.53466 17 0.001155 -0.001585 0.002008
Cl 8.13165 3.59947 4.63345 17 -0.002727 -0.00066 0.00196
Cl 0.69725 9.23103 9.42311 17 -0.001881 0.000965 -0.000753
Cl 7.59796 0.14994 3.50658 17 -0.002677 0.000373 -0.000369
Cl 0.67654 7.81318 0.36192 17 0.00013 -0.00232 0.002208
65
energy=-260.63386963 pbc="T T T" Lattice="10.25 0.0 0.0 0.0 10.25 0.0 0.0 0.0 12.35" Properties=species:S:1:pos:R:3:Z:I:1:force:R:3
Li 6.19868 9.28275 12.25095 3 0.005563 0.001166 -0.001342
Li 7.60994 5.77536 7.56484 3 0.005764 0.004199 0.000862
Li 2.51679 1.79586 0.46404 3 0.004264 -0.000538 -0.000312
Li 1.45499 7.74108 2.57009 3 -0.001698 -0.000875 -0.000658
Li 3.09314 2.24494 3.93456 3 0.001505 -0.000138 -0.002038
Li 1.96695 0.44438 8.16939 3 0.000428 0.003835 -0.001929
Li 7.52856 5.67943 2.66739 3 0.000883 -0.000196 0.000176
Li 5.31238 0.60096 3.71433 3 -0.003351 -0.000969 0.001842
Li 10.03638 9.65385 7.08039 3 -0.002885 0.003655 -0.00048
Li 9.75338 4.23316 2.74677 3 -0.001511 3.9e-05 0.001088
Li 4.34487 9.85771 6.54489 3 0.00415 0.002951 -0.000443
Li 9.05784 5.93553 0.03617 3 -0.002025 0.00136 -0.000836
Li 0.3577 3.78378 9.03269 3 -0.003199 -0.003867 2.1e-05
Li 3.0646 5.36108 7.32492 3 -0.007655 0.003344 0.00104
Li 6.55352 2.2377 12.1688 3 0.005396 -0.001711 0.000278
Li 8.93546 1.89862 10.0964 3 0.001881 -0.000821 -0.002645
Li 6.47419 5.45222 12.14844 3 0.001937 -0.001063 -0.002325
Li 4.98529 4.1133 5.33855 3 0.00152 -0.001128 -0.001794
Li 4.73664 6.88418 1.72254 3 -0.002015 -0.000779 -0.000591
Li 2.16224 7.80483 10.7326 3 0.000714 -0.000303 0.000751
Li 7.25719 2.39388 2.6861 3 0.00362 0.005367 -0.005161
Li 9.83686 7.15186 9.07253 3 -0.001979 0.000118 -0.000881
Li 0.05414 3.83195 5.7408 3 -0.001953 -0.001205 -0.001396
Li 9.37997 1.99299 0.53831 3 -0.007768 0.000796 0.001272
Li 7.42213 1.44257 5.49613 3 -0.001285 9.6e-05 -0.00472
Li 5.52092 6.47186 9.55056 3 -0.000145 0.001486 0.000635
Li 6.43456 8.35356 3.14827 3 0.000717 0.00101 0.000241
Li 7.06023 0.12822 9.55274 3 -0.003996 -0.001344 -0.00176
Li 6.1869 2.81891 7.7069 3 0.00063 -0.000456 0.000432
Li 8.85539 8.89626 0.62047 3 -0.001722 -0.002409 0.000909
P 2.90538 6.24549 4.15871 15 -0.000282 -0.005399 -0.005964
P 2.92927 4.70376 10.90645 15 -0.000616 0.000183 0.00567
P 0.97142 4.4273 12.02251 15 -0.000209 0.00105 -0.008288
P 2.03602 7.24987 6.03373 15 0.009023 0.000435 0.013931
P 10.2208 6.35649 5.59814 15 -0.004793 0.004308 -0.005445
S 3.80559 1.0478 9.97835 16 -0.008172 -0.000415 -0.000914
S 3.95686 9.07229 2.66744 16 -0.000334 0.002443 0.00129
S 4.42855 9.30847 10.20858 16 0.002557 -0.003231 -0.004025
S 2.02595 9.33313 5.86324 16 -0.004094 -0.003946 -0.00261
S 8.94829 7.55381 6.76545 16 -0.000319 -0.007353 0.003728
S 0.27678 2.04316 7.33543 16 0.002746 -0.003205 0.002574
S 5.03323 6.32209 4.16774 16 0.000405 0.000488 0.001284
S 4.09919 6.29566 11.69976 16 -0.002835 0.000516 -0.002197
S 1.75738 4.02671 1.69549 16 0.001427 0.001484 0.004457
S 1.84121 5.67214 9.32107 16 0.001373 0.005022 -0.008399
S 7.96353 3.91739 1.0464 16 -0.000776 -0.003913 0.005047
S 7.8903 5.94689 10.12991 16 0.000618 -0.002381 0.004002
S 0.81933 2.51741 11.18421 16 0.005009 0.002167 -0.003231
S 9.71979 6.71958 3.57488 16 0.002805 -0.003531 0.000128
S 1.00743 2.18697 2.36303 16 -0.001831 -0.001818 -0.000403
S 8.01753 0.41626 11.71656 16 -0.002797 0.005348 0.002506
S 8.54829 1.28679 7.63883 16 0.003377 -0.004643 0.000434
S 5.00603 1.72631 5.71903 16 -0.00107 -6e-06 -0.000453
S 7.03513 7.3983 1.07684 16 0.000962 0.006439 0.002837
S 8.2187 4.09422 9.12935 16 -0.000208 -0.000845 0.000872
S 4.76775 1.9658 1.71262 16 -0.000554 -0.000237 -0.000274
S 5.49554 2.21035 9.87917 16 0.003383 0.004961 -0.000537
S 5.50967 8.76876 8.51631 16 -0.004473 0.003368 0.001371
S 4.20584 0.06543 1.0111 16 -0.004223 0.004245 0.00137
S 2.51825 4.35657 5.08894 16 0.006008 0.002767 -0.004673
Cl 5.34 5.1331 7.535 17 0.000966 -0.00301 0.002069
Cl 8.13121 3.59937 4.63373 17 0.000801 -0.001277 0.002855
Cl 0.69704 9.23119 9.42297 17 -0.005277 -0.00359 0.00237
Cl 7.59751 0.15005 3.50652 17 -0.000148 -0.003911 0.00112
Cl 0.67657 7.81279 0.36228 17 0.00019 -0.001286 0.002642
65
energy=-260.57684139 pbc="T T T" Lattice="10.25 0.0 0.0 0.0 10.25 0.0 0.0 0.0 12.35" Properties=species:S:1:pos:R:3:Z:I:1:force:R:3
Li 6.18091 9.29447 12.26977 3 0.097098 0.001585 -0.040632
Li 7.58197 5.78164 7.5901 3 0.113108 0.043012 -0.015033
Li 2.52174 1.84071 0.45075 3 0.051974 -0.053492 0.012561
Li 1.48793 7.74042 2.57303 3 -0.063951 -0.009825 -0.012501
Li 3.09366 2.24507 3.88734 3 0.025151 0.002316 0.029087
Li 1.95852 0.39189 8.17996 3 0.024771 0.128608 -0.043316
Li 7.51951 5.68389 2.67914 3 0.022162 -0.004868 -0.009968
Li 5.33284 0.61774 3.70834 3 -0.074873 -0.031347 0.03232
Li 10.06274 9.6339 7.05696 3 -0.077846 0.070453 0.024383
Li 9.71979 4.19328 2.76325 3 0.026784 0.043981 -0.003821
Li 4.2945 9.87729 6.55866 3 0.130224 0.020258 -0.021624
Li 9.07656 5.9365 0.07728 3 -0.046563 0.02039 -0.056098
Li 0.36363 3.80212 9.01935 3 -0.048007 -0.074512 0.017243
Li 3.08761 5.32135 7.31312 3 -0.120168 0.089144 0.029423
Li 6.54444 2.26794 12.1677 3 0.080763 -0.055855 0.003867
Li 8.96083 1.86461 10.07257 3 0.00189 0.018792 -0.011704
Li 6.46868 5.4635 12.17138 3 0.030439 -0.03256 -0.063403
Li 5.00261 4.11091 5.33349 3 0.003717 -0.009928 -0.018151
Li 4.75122 6.90404 1.71608 3 -0.050207 -0.037498 -0.000439
Li 2.15058 7.83019 10.72428 3 0.024068 -0.038762 0.024279
Li 7.28224 2.35639 2.6982 3 0.012677 0.119127 -0.079639
Li 9.84186 7.12319 9.08021 3 -0.03227 0.036709 -0.020658
Li 0.11764 3.8301 5.7408 3 -0.092116 -0.014351 -0.012717
Li 9.41677 2.00529 0.50241 3 -0.156094 -0.00994 0.070771
Li 7.42091 1.42915 5.52955 3 -0.023474 0.019623 -0.114449
Li 5.52201 6.47035 9.56523 3 -0.005307 0.020146 -0.012861
Li 6.41148 8.34767 3.14708 3 0.035891 0.020806 0.006724
Li 7.0198 0.17015 9.58141 3 -0.00704 -0.070085 -0.050841
Li 6.17867 2.8102 7.70684 3 0.019163 0.00746 0.004494
Li 8.86462 8.92376 0.63383 3 -0.030482 -0.065808 -0.002336
P 2.90742 6.24739 4.16193 15 -0.009345 -0.084306 -0.093817
P 2.92892 4.71202 10.89735 15 -0.008271 -0.040761 0.119084
P 0.97154 4.42125 12.02945 15 -0.008137 0.052459 -0.156733
P 2.02659 7.24986 6.02129 15 0.182771 0.013501 0.252671
P 10.22996 6.34845 5.60608 15 -0.102871 0.086994 -0.110015
S 3.80639 1.0464 9.97455 16 -0.111351 0.009805 0.009152
S 3.95257 9.07345 2.67132 16 0.017767 0.030789 -0.000573
S 4.42858 9.3143 10.2064 16 0.031115 -0.074276 -0.037989
S 2.02927 9.34525 5.87103 16 -0.081991 -0.130702 -0.08095
S 8.95639 7.55673 6.75549 16 -0.047053 -0.110747 0.114582
S 0.27796 2.04151 7.33882 16 0.034676 -0.039889 0.01886
S 5.03349 6.32196 4.16685 16 0.009864 0.007888 0.021172
S 4.1006 6.30029 11.69963 16 -0.047444 -0.01365 -0.027356
S 1.75287 4.02855 1.69197 16 0.039981 0.007569 0.085528
S 1.83489 5.66959 9.32088 16 0.052674 0.083466 -0.108626
S 7.96148 3.92562 1.04767 16 0.002355 -0.087252 0.063571
S 7.88325 5.94093 10.13148 16 0.047918 -0.009553 0.052849
S 0.81507 2.51342 11.18211 16 0.112555 0.052787 -0.044315
S 9.72304 6.72219 3.58709 16 0.022098 -0.066628 -0.073764
S 1.00801 2.18765 2.35818 16 -0.030547 -0.027248 0.013529
S 8.02021 0.41952 11.71439 16 -0.044032 0.061119 0.045121
S 8.54766 1.28392 7.62597 16 0.05774 -0.056045 0.07848
S 5.00435 1.73058 5.71226 16 -0.004066 -0.022335 0.033945
S 7.02938 7.3983 1.06529 16 0.047366 0.095283 0.108353
S 8.22793 4.08618 9.14006 16 -0.054772 0.028487 -0.039085
S 4.76687 1.9699 1.7145 16 0.002454 -0.022571 -0.013465
S 5.49336 2.20703 9.88444 16 0.041934 0.090362 -0.031287
S 5.50195 8.77473 8.50413 16 -0.023972 0.014589 0.07106
S 4.20965 0.06524 1.01459 16 -0.07942 0.056963 0.003013
S 2.52719 4.34326 5.08101 16 0.053114 0.103524 -0.031094
Cl 5.34331 5.12819 7.54085 17 -0.00708 -0.018349 0.00052
Cl 8.12441 3.59741 4.63874 17 0.045252 -0.012815 0.01089
Cl 0.69271 9.2331 9.42121 17 -0.065101 -0.072192 0.053647
Cl 7.59023 0.151 3.50581 17 0.04611 -0.07644 0.021677
Cl 0.67699 7.80643 0.3686 17 -0.000519 0.015653 0.005948
65
energy=-245.59710569 pbc="T T T" Lattice="10.25 0.0 0.0 0.0 10.25 0.0 0.0 0.0 12.35" Properties=species:S:1:pos:R:3:Z:I:1:force:R:3
Li 5.97322 9.46551 0.17519 3 1.867997 -0.522476 -0.869589
Li 7.2295 5.89605 7.95673 3 1.639215 0.449294 -0.397476
Li 2.62161 2.47827 0.25895 3 0.574612 -0.711228 -0.113739
Li 1.94166 7.72681 2.60718 3 -0.980987 -0.013267 -0.48151
Li 3.11204 2.24918 3.20613 3 -0.186145 0.168395 1.082077
Li 1.86271 9.93736 8.30404 3 2.7998 2.06954 -2.147179
Li 7.39753 5.74697 2.84814 3 0.337258 -0.116713 -0.153479
Li 5.59187 0.85372 3.6374 3 -1.607323 0.171038 0.443413
Li 0.1569 9.37388 6.72289 3 -2.03345 0.604652 0.540787
Li 9.23805 3.6256 3.00316 3 0.942978 0.739654 -0.697587
Li 3.63654 10.18553 6.75799 3 4.381735 1.588362 0.934061
Li 9.33201 5.96069 0.66217 3 -0.328396 0.087766 -0.177411
Li 0.42374 4.03198 8.82912 3 -0.889994 -1.314428 -0.034952
Li 3.36838 4.77269 7.15254 3 -0.953296 0.356819 0.20516
Li 6.44947 2.68883 12.1543 3 0.56137 -0.484348 0.117757
Li 9.33565 1.36548 9.71431 3 -0.296289 -0.14183 0.107937
Li 6.40065 5.60696 0.12612 3 -0.001209 -1.358732 -1.025664
Li 5.26272 4.07105 5.24873 3 0.137237 0.01164 -0.211674
Li 4.93631 7.17747 1.61951 3 -1.251944 -0.619673 -0.061329
Li 1.99141 8.18486 10.61683 3 0.538752 -0.71248 0.795726
Li 7.65933 1.87666 2.83205 3 0.179853 3.489162 -1.662945
Li 9.89713 6.71676 9.1844 3 -0.669171 0.425132 -0.093918
Li 0.99879 3.79183 5.74372 3 -4.014624 -0.868811 1.642007
Li 9.85806 2.17265 0.03161 3 -5.968617 -1.59726 5.478907
Li 7.37952 1.23984 5.95159 3 -2.118824 0.100962 -3.246163
Li 5.53447 6.45825 9.77599 3 -0.153959 0.168754 -0.151017
Li 6.0899 8.27202 3.13445 3 0.700223 0.355147 0.342276
Li 6.44003 0.73351 9.98288 3 4.523836 -6.171034 0.105948
Li 6.06632 2.68521 7.7078 3 0.196219 0.132714 0.013049
Li 8.98729 9.2987 0.83016 3 -0.158938 -0.585262 -0.153048
P 2.93698 6.26508 4.19867 15 0.101994 -1.14982 -0.93142
P 2.92341 4.82932 10.77683 15 0.304328 -0.655939 1.469109
P 0.97136 4.33836 12.11227 15 -0.70099 1.033678 -2.609587
P 1.90953 7.25296 5.86634 15 2.792673 0.943535 2.595005
P 0.1026 6.23842 5.71072 15 -1.775483 0.342619 -1.195964
S 3.80512 1.02759 9.91925 16 -1.361179 0.710101 0.052239
S 3.89104 9.09412 2.72863 16 0.318731 0.391326 -0.100903
S 4.4327 9.39161 10.16955 16 0.415552 -1.312211 -0.504147
S 2.06694 9.50859 5.9748 16 -2.197795 -2.578931 -2.805604
S 9.07106 7.58807 6.62115 16 -0.621242 -0.827923 1.493998
S 0.29891 2.01299 7.39067 16 0.113493 -0.142891 -0.069215
S 5.03886 6.32092 4.15616 16 0.305878 0.111057 0.262035
S 4.11598 6.36734 11.69476 16 -0.550072 -0.189574 -0.176718
S 1.69113 4.05672 1.65085 16 0.678611 0.029292 1.808513
S 1.74735 5.64191 9.3061 16 0.764392 1.321449 -0.817697
S 7.93152 4.03858 1.07341 16 0.091868 -0.547283 0.593371
S 7.78406 5.85132 10.1603 16 0.546812 -0.133055 0.471329
S 0.77009 2.4617 11.14083 16 5.654749 1.657437 -4.906645
S 9.7732 6.75342 3.75932 16 -0.122383 -0.692782 -1.284236
S 1.01267 2.1948 2.28745 16 -0.677659 -0.241757 0.010354
S 8.05567 0.47459 11.68666 16 -0.269126 0.476791 0.083976
S 8.54712 1.23572 7.44703 16 2.419414 -0.11756 2.832999
S 4.97899 1.79114 5.6162 16 -0.033702 -0.369092 0.739336
S 6.95012 7.41056 0.90681 16 1.031817 2.012918 1.425236
S 8.35846 3.97068 9.2946 16 -0.644465 0.663668 -0.346099
S 4.75463 2.02802 1.73975 16 0.509108 -0.334769 -0.924689
S 5.4621 2.17358 9.95924 16 -3.404111 6.631855 -0.43929
S 5.38435 8.86482 8.3315 16 -0.380793 0.023163 0.759996
S 4.25652 0.06917 1.06743 16 -1.444283 0.824335 0.497008
S 2.66937 4.15841 4.95831 16 3.618075 1.889625 -1.816282
Cl 5.3911 5.05321 7.62749 17 -0.544451 -0.385353 -0.153275
Cl 8.02644 3.56676 4.71411 17 -0.478483 -0.239051 0.405204
Cl 0.61837 9.25269 9.40289 17 -3.3956 -1.455124 2.313189
Cl 7.48818 0.15357 3.49843 17 0.981803 -3.78398 1.087056
Cl 0.68345 7.71392 0.46297 17 0.151319 0.400898 0.028101
65
energy=-247.20354222 pbc="T T T" Lattice="10.25 0.0 0.0 0.0 10.25 0.0 0.0 0.0 12.35" Properties=species:S:1:pos:R:3:Z:I:1:force:R:3
Li 5.99896 9.48757 0.20476 3 1.778571 -0.461076 -0.778998
Li 7.20569 5.9449 8.03148 3 1.48646 0.423696 -0.663028
Li 2.67317 2.61164 0.2028 3 0.644397 -0.794853 -0.218224
Li 2.0151 7.72174 2.59491 3 -1.14297 -0.060748 -0.529343
Li 3.10419 2.25833 3.08015 3 -0.411538 0.241239 1.362887
Li 1.94311 9.82762 8.25872 3 1.649134 1.0641 -0.972838
Li 7.38044 5.75862 2.88547 3 0.352385 -0.090378 -0.149365
Li 5.59322 0.92225 3.63631 3 -1.37187 0.120139 0.307619
Li 0.15646 9.33265 6.66076 3 -2.090015 0.76153 0.619742
Li 9.15895 3.51445 3.03266 3 1.344604 1.098075 -0.790008
Li 3.63825 0.08068 6.84371 3 3.251844 1.239553 0.30456
Li 9.38413 5.97011 0.80633 3 -0.327208 0.065651 -0.142532
Li 0.40269 4.03601 8.77898 3 -0.767943 -1.250753 0.054516
Li 3.40365 4.64539 7.11977 3 -0.790058 0.328171 0.218129
Li 6.44774 2.77598 12.1548 3 0.491668 -0.606692 0.031914
Li 9.42056 1.23125 9.6284 3 -0.255461 -0.116551 0.285393
Li 6.38289 5.58793 0.16257 3 0.023218 -1.131333 -0.956858
Li 5.33586 4.062 5.21809 3 0.145861 0.076666 -0.191092
Li 4.93039 7.2218 1.59169 3 -1.270687 -0.642428 -0.078986
Li 1.97388 8.24539 10.62467 3 0.550777 -0.771206 0.894769
Li 7.76305 1.88646 2.79916 3 -0.140983 2.208617 -1.334934
Li 9.88183 6.63048 9.20794 3 -0.734917 0.4922 -0.056979
Li 1.06007 3.74571 5.81497 3 -3.116711 -0.654658 1.232452
Li 9.75336 2.15907 0.10491 3 -3.126412 -0.749 2.374231
Li 7.28462 1.19339 5.93387 3 -1.419273 0.01393 -2.328926
Li 5.53115 6.46184 9.82369 3 -0.152749 0.13167 -0.206963
Li 6.03755 8.2678 3.14642 3 0.786241 0.378619 0.375152
Li 6.46182 0.64278 10.0942 3 2.434764 -3.248105 -0.051689
Li 6.04606 2.65872 7.70919 3 0.248189 0.160212 0.059716
Li 9.01215 9.37017 0.87396 3 -0.168297 -0.673993 -0.191421
P 2.94551 6.2586 4.1993 15 0.075202 -1.165021 -0.949047
P 2.9247 4.85331 10.75982 15 0.17804 -0.689785 1.522053
P 0.96433 4.32688 12.10817 15 -0.722111 1.015024 -2.77835
P 1.90649 7.26267 5.85109 15 2.963885 0.866064 2.669631
P 0.11751 6.2132 5.72655 15 -1.658684 0.408375 -1.177459
S 3.79228 1.02957 9.90549 16 -1.343841 0.788791 0.087387
S 3.87827 9.10346 2.74257 16 0.369702 0.500798 -0.080883
S 4.43757 9.39952 10.15528 16 0.381711 -1.256512 -0.536898
S 2.06038 9.52784 5.97597 16 -0.860262 -2.195552 -2.556562
S 9.09438 7.58828 6.60071 16 -0.888342 -0.990042 1.708676
S 0.30554 2.00445 7.40331 16 0.199862 -0.086237 -0.133869
S 5.04338 6.32173 4.15582 16 0.428889 0.141291 0.257716
S 4.11476 6.38294 11.69203 16 -0.591553 -0.17914 -0.125412
S 1.68112 4.06422 1.65699 16 0.56022 0.006549 1.737921
S 1.73207 5.64679 9.29482 16 0.842911 1.230729 -0.816147
S 7.92485 4.06248 1.08596 16 0.179903 -0.664296 0.7385
S 7.76372 5.82684 10.17275 16 0.616906 -0.140614 0.681435
S 0.80385 2.46183 11.09285 16 2.990866 1.043913 -1.783876
S 9.78474 6.75493 3.79113 16 -0.236912 -0.761876 -1.602901
S 1.00705 2.19424 2.26943 16 -0.89935 -0.295456 0.055086
S 8.06255 0.49289 11.68091 16 -0.125907 0.348839 0.378192
S 8.56835 1.22227 7.4247 16 1.774264 -0.143785 1.912784
S 4.97188 1.80351 5.59869 16 -0.137977 -0.326204 0.950736
S 6.93934 7.43217 0.87882 16 1.030561 1.839934 1.421603
S 8.386 3.94723 9.33141 16 -0.788801 0.77242 -0.347567
S 4.75734 2.03997 1.73684 16 0.782064 -0.310482 -1.164406
S 5.4264 2.22082 9.97326 16 -1.500039 3.705556 -0.583263
S 5.35063 8.88816 8.29396 16 -0.307002 -0.038898 0.795581
S 4.25518 0.07772 1.08545 16 -1.367154 0.72091 0.326966
S 2.73834 4.12805 4.90939 16 2.549991 1.754092 -1.473325
Cl 5.39895 5.03066 7.64847 17 -0.485665 -0.333291 -0.191552
Cl 7.99683 3.55704 4.7375 17 -0.564632 -0.204362 0.47258
Cl 0.57298 9.24812 9.41501 17 -2.382453 -0.633396 1.331734
Cl 7.46933 0.12441 3.50503 17 0.834147 -2.803013 0.761351
Cl 0.68652 7.6936 0.48758 17 0.202869 0.507724 0.022427
65
energy=-252.30833778 pbc="T T T" Lattice="10.25 0.0 0.0 0.0 10.25 0.0 0.0 0.0 12.35" Properties=species:S:1:pos:R:3:Z:I:1:force:R:3
Li 6.08898 9.46755 0.16833 3 1.025319 -0.145989 -0.41626
Li 7.28033 5.96891 8.00022 3 1.023793 0.222299 -0.646964
Li 2.70965 2.57881 0.18837 3 0.466148 -0.618188 -0.128181
Li 1.95975 7.71835 2.56727 3 -0.926071 -0.043001 -0.341662
Li 3.08432 2.27176 3.14273 3 -0.171222 0.210344 1.04013
Li 2.02512 9.87315 8.21276 3 0.486012 0.533921 -0.07611
Li 7.39762 5.75511 2.8801 3 0.26287 -0.032563 -0.114391
Li 5.52513 0.92976 3.65063 3 -0.772814 -0.165693 0.098505
Li 0.05336 9.37402 6.6888 3 -1.181912 0.920344 0.455235
Li 9.2252 3.56701 2.99696 3 1.147451 1.05893 -0.330019
Li 3.79895 0.14848 6.85862 3 1.705396 0.42285 -0.298276
Li 9.37003 5.97469 0.80738 3 -0.288224 0.092086 -0.176829
Li 0.36394 3.9734 8.78103 3 -0.371575 -0.767582 0.246
Li 3.36402 4.6559 7.12988 3 -0.651952 0.385613 0.240986
Li 6.47358 2.74774 12.15566 3 0.403528 -0.655598 -0.046489
Li 9.4135 1.21643 9.63907 3 -0.13185 -0.09699 0.336462
Li 6.38447 5.53323 0.11557 3 0.142373 -0.420474 -0.693511
Li 5.34822 4.06589 5.2064 3 0.116353 0.100427 -0.123501
Li 4.86637 7.19116 1.58611 3 -0.771479 -0.494396 -0.028408
Li 1.99997 8.2092 10.67069 3 0.307337 -0.589279 0.601568
Li 7.75741 1.99278 2.73097 3 -0.5084 0.866804 -0.723312
Li 9.84356 6.65126 9.2063 3 -0.481348 0.440544 -0.058228
Li 0.91415 3.7129 5.87456 3 -1.356951 -0.145302 0.201248
Li 9.59592 2.12383 0.22083 3 -1.15727 -0.126144 0.512843
Li 7.21452 1.19138 5.81925 3 -0.264934 0.029475 -1.131835
Li 5.52323 6.46863 9.81461 3 -0.095757 0.073547 -0.276202
Li 6.07511 8.28705 3.16575 3 0.601715 0.272029 0.208054
Li 6.57699 0.483 10.09184 3 0.620427 -0.948372 -0.588895
Li 6.05865 2.66591 7.71269 3 0.272701 0.171394 0.070828
Li 9.00452 9.33775 0.86669 3 -0.168895 -0.676177 -0.159788
P 2.94691 6.2446 4.18787 15 0.0447 -0.827415 -0.819939
P 2.9261 4.8466 10.77678 15 -0.152552 -0.5733 1.202392
P 0.95597 4.33788 12.07539 15 -0.336209 0.707801 -2.045732
P 1.94123 7.27274 5.88226 15 2.274379 0.376801 2.280262
P 0.09973 6.2172 5.71338 15 -0.969058 0.601045 -1.005051
S 3.77643 1.03866 9.90582 16 -0.92299 0.596653 0.157783
S 3.88161 9.10983 2.74262 16 0.269132 0.416116 -0.033559
S 4.44204 9.38612 10.14824 16 0.212173 -0.804868 -0.406429
S 2.05103 9.50449 5.9478 16 -0.259362 -1.510964 -1.621421
S 9.08498 7.57616 6.61953 16 -0.973292 -1.071442 1.577205
S 0.30862 2.00273 7.4026 16 0.294274 -0.141226 -0.10342
S 5.04878 6.32355 4.15866 16 0.417755 0.168003 0.167842
S 4.10783 6.38197 11.69046 16 -0.500578 -0.113377 -0.080333
S 1.68648 4.06468 1.67622 16 0.279283 -0.038315 0.971178
S 1.74077 5.6607 9.28454 16 0.691571 0.778987 -0.71371
S 7.92659 4.05592 1.09544 16 0.18714 -0.707649 0.669305
S 7.76947 5.8238 10.18161 16 0.484908 -0.056104 0.640607
S 0.83787 2.47344 11.07212 16 1.213797 0.627599 -0.077586
S 9.78267 6.74612 3.77431 16 -0.228115 -0.67477 -1.474034
S 0.9961 2.19078 2.26889 16 -0.821329 -0.251578 0.03929
S 8.06204 0.49803 11.68584 16 0.065855 0.258662 0.652577
S 8.58795 1.21929 7.44332 16 0.619763 -0.286228 0.798926
S 4.96958 1.80085 5.60882 16 -0.202585 -0.138828 0.892309
S 6.95004 7.45343 0.89362 16 0.675064 1.010447 1.251428
S 8.37814 3.95464 9.32961 16 -0.860514 0.640512 -0.346107
S 4.76605 2.0374 1.72365 16 0.488496 -0.16556 -0.81137
S 5.40884 2.26257 9.96768 16 -0.264012 1.227612 -0.394861
S 5.34521 8.8891 8.30076 16 -0.132096 -0.080442 0.665979
S 4.24023 0.08594 1.08944 16 -0.800024 0.351823 -0.087964
S 2.76871 4.14573 4.89122 16 0.771457 1.215417 -0.475005
Cl 5.39485 5.02604 7.64788 17 -0.210755 -0.146137 -0.138548
Cl 7.98941 3.5542 4.74321 17 -0.315959 -0.195503 0.100539
Cl 0.54721 9.24162 9.42861 17 -1.085974 -0.305506 0.602608
Cl 7.47659 0.0958 3.51265 17 0.583244 -1.242404 0.310659
Cl 0.68882 7.69771 0.48938 17 0.162683 0.473849 0.009621
65
energy=-255.35106135 pbc="T T T" Lattice="10.25 0.0 0.0 0.0 10.25 0.0 0.0 0.0 12.35" Properties=species:S:1:pos:R:3:Z:I:1:force:R:3
Li 6.18295 9.45376 0.13007 3 0.447845 0.041427 -0.184269
Li 7.37256 5.9895 7.94386 3 0.607423 0.032067 -0.502227
Li 2.75221 2.52463 0.17635 3 0.286847 -0.448642 -0.031019
Li 1.87761 7.71449 2.5371 3 -0.660135 -0.023274 -0.10185
Li 3.06812 2.29065 3.2345 3 -0.02455 0.155232 0.687764
Li 2.07712 9.92326 8.19813 3 0.05536 0.321795 0.103099
Li 7.42089 5.75216 2.87016 3 0.154964 0.003548 -0.086555
Li 5.45343 0.91618 3.66013 3 -0.403772 -0.349156 -0.021721
Li 10.19446 9.45389 6.72901 3 -0.589718 0.782749 0.287345
Li 9.32648 3.65956 2.96638 3 0.817811 0.846162 -0.032664
Li 3.95809 0.19026 6.8387 3 0.763885 -0.140545 -0.309259
Li 9.34444 5.98298 0.79286 3 -0.262757 0.096859 -0.22538
Li 0.32985 3.90378 8.80234 3 -0.056679 -0.368156 0.367574
Li 3.30628 4.68939 7.15134 3 -0.455975 0.435388 0.25518
Li 6.51026 2.69002 12.15176 3 0.331725 -0.629659 -0.087357
Li 9.40244 1.20594 9.66801 3 -0.039821 -0.083974 0.335096
Li 6.39687 5.49284 0.05307 3 0.214456 0.001935 -0.471329
Li 5.35964 4.07465 5.19497 3 0.087501 0.099404 -0.053608
Li 4.7962 7.14741 1.58377 3 -0.351148 -0.325635 0.062169
Li 2.02788 8.15654 10.7251 3 0.128839 -0.433467 0.34044
Li 7.71585 2.07971 2.66337 3 -0.541085 0.363181 -0.329361
Li 9.80041 6.69005 9.20117 3 -0.213657 0.387363 -0.066867
Li 0.78199 3.69739 5.89894 3 -0.66451 0.132379 -0.224337
Li 9.47819 2.10886 0.28218 3 -0.385926 0.138571 0.020678
Li 7.18408 1.19377 5.7112 3 0.259986 0.069959 -0.544285
Li 5.51454 6.47529 9.79021 3 -0.046792 0.01906 -0.323851
Li 6.12829 8.31123 3.18455 3 0.381404 0.143456 0.051054
Li 6.64648 0.37868 10.04362 3 0.114333 -0.328647 -0.701278
Li 6.08294 2.68118 7.71877 3 0.274214 0.182498 0.049625
Li 8.98948 9.27805 0.85269 3 -0.170132 -0.60426 -0.135674
P 2.94806 6.22792 4.17131 15 0.067262 -0.396196 -0.603937
P 2.9231 4.83523 10.8009 15 -0.377484 -0.434137 0.799382
P 0.94896 4.35248 12.03383 15 -0.035292 0.527441 -1.246985
P 1.98741 7.28047 5.92819 15 1.511328 -0.069717 1.673042
P 0.08015 6.22895 5.69322 15 -0.35165 0.645945 -0.744328
S 3.75821 1.05047 9.9088 16 -0.481772 0.413082 0.225718
S 3.88675 9.11814 2.74208 16 0.169197 0.323669 -0.011785
S 4.44616 9.37039 10.14024 16 0.005266 -0.37623 -0.203088
S 2.04467 9.47428 5.91524 16 -0.15777 -1.106812 -0.976927
S 9.06648 7.55544 6.65028 16 -0.836552 -0.924357 1.347328
S 0.3144 1.99966 7.40078 16 0.317283 -0.244247 -0.053335
S 5.05699 6.3269 4.1619 16 0.354339 0.190156 0.05923
S 4.09795 6.37995 11.68881 16 -0.403212 -0.044697 -0.05064