 65
 energy=-260.62129041365932 cutoff=4.00000000 nneightol=1.20000000 pbc="T T T" Lattice="10.25000000       0.00000000       0.00000000       0.00000000      10.25000000       0.00000000       0.00000000       0.00000000      12.35000000" Properties=species:S:1:pos:R:3:Z:I:1:force:R:3:map_shift:I:3:n_neighb:I:1
 Li              6.20030000      9.28200000     12.24954000       3      0.30733942     -0.23407829     -0.05613765      -1      -1      -1      23
 Li              7.61230000      5.77519000      7.56311000       3     -0.03093261     -0.16441346     -0.24735219      -1      -1      -1      14
 Li              2.51672000      1.79265000      0.46496000       3     -0.12819934     -0.03947270     -0.09181286       0       0       0      16
 Li              1.45255000      7.74107000      2.56984000       3      0.03984272     -0.13763049      0.15614823       0      -1       0      18
 Li              3.09320000      2.24493000      3.93777000       3     -0.12900013      0.08212698      0.01886855       0       0       0      17
 Li              1.96757000      0.44835000      8.16852000       3     -0.02657452     -0.21079181      0.18755399       0       0      -1      17
 Li              7.52926000      5.67911000      2.66657000       3      0.11209758      0.27834191     -0.01242466      -1      -1       0      14
 Li              5.31071000      0.59971000      3.71487000       3      0.04734244      0.13734846      0.04370488      -1       0       0      17
 Li             10.03432000      9.65550000      7.08202000       3     -0.09200532      0.22961784      0.15897397      -1      -1      -1      13
 Li              9.75566000      4.23598000      2.74568000       3      0.05447463      0.03312089      0.11066547      -1       0       0      20
 Li              4.34871000      9.85652000      6.54389000       3      0.05430805      0.23999727      0.12131907       0      -1      -1      17
 Li              9.05638000      5.93555000      0.03322000       3     -0.10799048     -0.04193240     -0.01111657      -1      -1       0      21
 Li              0.35707000      3.78223000      9.03363000       3     -0.11939527      0.09779820      0.11290144       0       0      -1      17
 Li              3.06248000      5.36410000      7.32583000       3     -0.19876892     -0.35011945     -0.14029710       0      -1      -1      19
 Li              6.55451000      2.23545000     12.16890000       3     -0.24622820      0.08813325     -0.11249830      -1       0      -1      20
 Li              8.93380000      1.90097000     10.09791000       3     -0.21268941      0.04072803     -0.30114239      -1       0      -1      18
 Li              6.47471000      5.45135000     12.14666000       3      0.04585405      0.06559973      0.15379076      -1      -1      -1      17
 Li              4.98417000      4.11340000      5.33879000       3     -0.35059380     -0.16677144      0.34270469       0       0       0      16
 Li              4.73548000      6.88272000      1.72296000       3     -0.04450004     -0.16856455     -0.02382403       0      -1       0      17
 Li              2.16312000      7.80302000     10.73325000       3     -0.04138030     -0.02492472     -0.04278626       0      -1      -1      18
 Li              7.25566000      2.39688000      2.68491000       3     -0.02157823      0.10786449      0.02926529      -1       0       0      19
 Li              9.83638000      7.15389000      9.07193000       3      0.07563784     -0.09452825     -0.09606383      -1      -1      -1      19
 Li              0.04953000      3.83201000      5.74072000       3     -0.05894168      0.04415663      0.13019053       0       0       0      19
 Li              9.37686000      1.99217000      0.54094000       3      0.04485494     -0.07110450     -0.09536364      -1       0       0      18
 Li              7.42213000      1.44352000      5.49346000       3      0.06698489      0.12410872      0.29148054      -1       0       0      14
 Li              5.52083000      6.47206000      9.54957000       3     -0.03113420      0.13846704      0.05888946      -1      -1      -1      18
 Li              6.43624000      8.35404000      3.14838000       3      0.10017035      0.10625741     -0.41955713      -1      -1       0      18
 Li              7.06283000      0.12517000      9.55060000       3     -0.05880069      0.32586500     -0.11343062      -1       0      -1      20
 Li              6.18752000      2.81950000      7.70693000       3      0.04685158     -0.17494252     -0.33755690      -1       0      -1      18
 Li              8.85463000      8.89416000      0.61958000       3     -0.00963551     -0.12810860     -0.17857000      -1      -1       0      19
 P               2.90523000      6.24528000      4.15840000      15     -0.13637653      0.02542001     -0.38180353       0      -1       0      17
 P               2.92928000      4.70318000     10.90718000      15     -0.07563522     -0.24242216      0.03999703       0       0      -1      16
 P               0.97141000      4.42774000     12.02190000      15     -0.16505797     -0.08461861     -0.31256508       0       0      -1      19
 P               2.03683000      7.24987000      6.03482000      15      0.12027900     -0.59384842      0.32763058       0      -1       0      19
 P              10.22008000      6.35712000      5.59750000      15      0.05824380     -0.13065578     -0.07585581      -1      -1       0      17
 S               3.80542000      1.04789000      9.97860000      16      0.02176062      0.09171192      0.12704605       0       0      -1      17
 S               3.95717000      9.07225000      2.66719000      16      0.04192845     -0.06842622      0.22625839       0      -1       0      20
 S               4.42859000      9.30801000     10.20867000      16     -0.06916130     -0.07646214     -0.11348692       0      -1      -1      15
 S               2.02566000      9.33222000      5.86266000      16     -0.11324262      0.10465912     -0.04573663       0      -1       0      17
 S               8.94771000      7.55349000      6.76621000      16     -0.07742388      0.11126484     -0.05799028      -1      -1      -1      17
 S               0.27674000      2.04323000      7.33523000      16      0.03662177     -0.08113308      0.13267428       0       0      -1      17
 S               5.03322000      6.32211000      4.16782000      16      0.15752290      0.09658046     -0.22593370       0      -1       0      15
 S               4.09906000      6.29534000     11.69974000      16      0.02005245     -0.04720098     -0.11529505       0      -1      -1      18
 S               1.75772000      4.02659000      1.69580000      16     -0.01048123      0.21130379     -0.01510164       0       0       0      19
 S               1.84168000      5.67239000      9.32097000      16     -0.05088993      0.07215256      0.10450837       0      -1      -1      21
 S               7.96366000      3.91675000      1.04639000      16     -0.01470354      0.12558588     -0.01201714      -1       0       0      20
 S               7.89080000      5.94728000     10.12986000      16     -0.11340563      0.17680554      0.25667637      -1      -1      -1      22
 S               0.81971000      2.51772000     11.18431000      16      0.05864970      0.34560049     -0.32430621       0       0      -1      18
 S               9.71960000      6.71934000      3.57402000      16      0.10205015     -0.22751095     -0.16179561      -1      -1       0      19
 S               1.00736000      2.18690000      2.36337000      16      0.29711526      0.04418692     -0.08286946       0       0       0      16
 S               8.01730000      0.41611000     11.71676000      16     -0.19066083      0.33817239      0.11191996      -1       0      -1      19
 S               8.54839000      1.28692000      7.63975000      16     -0.09828376      0.02353433      0.23324062      -1       0      -1      18
 S               5.00613000      1.72601000      5.71951000      16      0.25659734      0.24354592      0.03434477       0       0       0      20
 S               7.03555000      7.39839000      1.07770000      16     -0.02274742      0.12212377      0.10769690      -1      -1       0      19
 S               8.21805000      4.09478000      9.12861000      16      0.16604116     -0.12882776      0.02385260      -1       0      -1      22
 S               4.76780000      1.96551000      1.71249000      16      0.33230143      0.03428562      0.15579504       0       0       0      19
 S               5.49574000      2.21066000      9.87880000      16      0.07084190      0.23311647     -0.00840161      -1       0      -1      22
 S               5.51016000      8.76839000      8.51719000      16      0.12678814     -0.06869408     -0.11650786      -1      -1      -1      20
 S               4.20551000      0.06550000      1.01087000      16     -0.02608326     -0.37839849      0.39753745       0       0       0      21
 S               2.51771000      4.35755000      5.08944000      16      0.13353978     -0.01187568     -0.00971040       0       0       0      17
 Cl              5.33978000      5.13341000      7.53462000      17      0.23713015     -0.08605917      0.18381303      -1      -1      -1      19
 Cl              8.13171000      3.59949000      4.63342000      17      0.13684518     -0.15492038     -0.12015683      -1       0       0      19
 Cl              0.69728000      9.23100000      9.42313000      17      0.01015588     -0.01134830      0.00851850       0      -1      -1      18
 Cl              7.59802000      0.14993000      3.50659000      17     -0.11442016      0.04601522      0.02491722      -1       0       0      20
 Cl              0.67654000      7.81322000      0.36187000      17     -0.19330161     -0.18581171      0.04658388       0      -1       0      19
 65
 energy=-260.62132652012269 cutoff=4.00000000 nneightol=1.20000000 pbc="T T T" Lattice="10.25000000       0.00000000       0.00000000       0.00000000      10.25000000       0.00000000       0.00000000       0.00000000      12.35000000" Properties=species:S:1:pos:R:3:Z:I:1:force:R:3:map_shift:I:3:n_neighb:I:1
 Li              6.20008000      9.28208000     12.24971000       3      0.30941569     -0.23337799     -0.05575312      -1      -1      -1      23
 Li              7.61200000      5.77518000      7.56331000       3     -0.02914641     -0.16202947     -0.24813023      -1      -1      -1      14
 Li              2.51670000      1.79302000      0.46485000       3     -0.12644827     -0.04165067     -0.09066749       0       0       0      16
 Li              1.45284000      7.74107000      2.56988000       3      0.03949916     -0.13744230      0.15697028       0      -1       0      18
 Li              3.09319000      2.24493000      3.93741000       3     -0.12905024      0.08241772      0.01867469       0       0       0      17
 Li              1.96750000      0.44788000      8.16863000       3     -0.02596928     -0.20962969      0.18801363       0       0      -1      17
 Li              7.52918000      5.67914000      2.66666000       3      0.11228560      0.27803397     -0.01210423      -1      -1       0      14
 Li              5.31092000      0.59986000      3.71480000       3      0.04568074      0.13675136      0.04404548      -1       0       0      17
 Li             10.03458000      9.65529000      7.08184000       3     -0.09290543      0.23022924      0.15888149      -1      -1      -1      13
 Li              9.75541000      4.23566000      2.74580000       3      0.05485563      0.03330644      0.11081391      -1       0       0      20
 Li              4.34825000      9.85664000      6.54400000       3      0.05692469      0.24038640      0.11965433       0      -1      -1      17
 Li              9.05656000      5.93554000      0.03356000       3     -0.10969527     -0.04127330     -0.01275368      -1      -1       0      21
 Li              0.35716000      3.78242000      9.03353000       3     -0.11916989      0.09689987      0.11276975       0       0      -1      17
 Li              3.06277000      5.36374000      7.32572000       3     -0.20101776     -0.34862929     -0.13920118       0      -1      -1      19
 Li              6.55437000      2.23571000     12.16889000       3     -0.24425339      0.08736776     -0.11157930      -1       0      -1      20
 Li              8.93398000      1.90070000     10.09775000       3     -0.21358702      0.04111550     -0.30114235      -1       0      -1      18
 Li              6.47464000      5.45145000     12.14688000       3      0.04607784      0.06541960      0.15314003      -1      -1      -1      17
 Li              4.98429000      4.11339000      5.33877000       3     -0.35075742     -0.16757740      0.34183814       0       0       0      16
 Li              4.73562000      6.88289000      1.72292000       3     -0.04485471     -0.16920000     -0.02357483       0      -1       0      17
 Li              2.16301000      7.80323000     10.73317000       3     -0.04173062     -0.02489392     -0.04314964       0      -1      -1      18
 Li              7.25581000      2.39651000      2.68508000       3     -0.02062408      0.10990864      0.02681419      -1       0       0      19
 Li              9.83644000      7.15366000      9.07201000       3      0.07498737     -0.09430734     -0.09672012      -1      -1      -1      19
 Li              0.05007000      3.83201000      5.74074000       3     -0.06141135      0.04435675      0.13022364       0       0       0      19
 Li              9.37726000      1.99226000      0.54063000       3      0.04058969     -0.07194161     -0.09466824      -1       0       0      18
 Li              7.42213000      1.44341000      5.49379000       3      0.06625899      0.12470477      0.29028467      -1       0       0      14
 Li              5.52084000      6.47203000      9.54968000       3     -0.03127764      0.13871863      0.05884189      -1      -1      -1      18
 Li              6.43605000      8.35398000      3.14836000       3      0.10096574      0.10588280     -0.41930656      -1      -1       0      18
 Li              7.06255000      0.12552000      9.55086000       3     -0.05935223      0.32522622     -0.11368811      -1       0      -1      20
 Li              6.18745000      2.81943000      7.70693000       3      0.04749079     -0.17442297     -0.33790406      -1       0      -1      18
 Li              8.85473000      8.89441000      0.61968000       3     -0.01036937     -0.12893934     -0.17899431      -1      -1       0      19
 P               2.90525000      6.24531000      4.15844000      15     -0.13588576      0.02398346     -0.38212066       0      -1       0      17
 P               2.92928000      4.70325000     10.90709000      15     -0.07536450     -0.24257120      0.04046353       0       0      -1      16
 P               0.97141000      4.42769000     12.02198000      15     -0.16484973     -0.08286394     -0.31446237       0       0      -1      19
 P               2.03673000      7.24987000      6.03468000      15      0.12236986     -0.59407409      0.32961697       0      -1       0      19
 P              10.22017000      6.35704000      5.59758000      15      0.05721577     -0.13125548     -0.07588382      -1      -1       0      17
 S               3.80545000      1.04788000      9.97858000      16      0.01980852      0.09228463      0.12778770       0       0      -1      17
 S               3.95713000      9.07225000      2.66721000      16      0.04173945     -0.06711198      0.22500332       0      -1       0      20
 S               4.42858000      9.30806000     10.20867000      16     -0.06849322     -0.07701206     -0.11335728       0      -1      -1      15
 S               2.02569000      9.33233000      5.86273000      16     -0.11438043      0.10358173     -0.04629791       0      -1       0      17
 S               8.94778000      7.55354000      6.76612000      16     -0.07869276      0.10996292     -0.05679142      -1      -1      -1      17
 S               0.27674000      2.04323000      7.33525000      16      0.03735901     -0.08206628      0.13329975       0       0      -1      17
 S               5.03322000      6.32210000      4.16781000      16      0.15727353      0.09677394     -0.22597843       0      -1       0      15
 S               4.09908000      6.29537000     11.69974000      16      0.01994736     -0.04728097     -0.11522653       0      -1      -1      18
 S               1.75768000      4.02661000      1.69576000      16     -0.00783521      0.21120085     -0.01287321       0       0       0      19
 S               1.84162000      5.67236000      9.32099000      16     -0.05034490      0.07328224      0.10265887       0      -1      -1      21
 S               7.96365000      3.91683000      1.04638000      16     -0.01468655      0.12420857     -0.01111121      -1       0       0      20
 S               7.89074000      5.94724000     10.12986000      16     -0.11303136      0.17669576      0.25747135      -1      -1      -1      22
 S               0.81966000      2.51768000     11.18430000      16      0.06026018      0.34608774     -0.32576785       0       0      -1      18
 S               9.71962000      6.71937000      3.57411000      16      0.10155560     -0.22777060     -0.16299260      -1      -1       0      19
 S               1.00737000      2.18691000      2.36333000      16      0.29687270      0.04394830     -0.08165815       0       0       0      16
 S               8.01733000      0.41612000     11.71673000      16     -0.19139142      0.33852367      0.11202760      -1       0      -1      19
 S               8.54837000      1.28691000      7.63965000      16     -0.09710597      0.02306818      0.23425153      -1       0      -1      18
 S               5.00612000      1.72604000      5.71945000      16      0.25623421      0.24245229      0.03557499       0       0       0      20
 S               7.03550000      7.39837000      1.07760000      16     -0.02205375      0.12306700      0.10855916      -1      -1       0      19
 S               8.21813000      4.09472000      9.12869000      16      0.16690578     -0.12919633      0.02189433      -1       0      -1      22
 S               4.76780000      1.96554000      1.71250000      16      0.33090468      0.03434764      0.15549292       0       0       0      19
 S               5.49571000      2.21062000      9.87884000      16      0.07103630      0.23386700     -0.00916540      -1       0      -1      22
 S               5.51011000      8.76842000      8.51708000      16      0.12713650     -0.06865970     -0.11651698      -1      -1      -1      20
 S               4.20555000      0.06549000      1.01090000      16     -0.02693520     -0.37694458      0.39750364       0       0       0      21
 S               2.51776000      4.35743000      5.08938000      16      0.13392985     -0.01075390     -0.01045552       0       0       0      17
 Cl              5.33980000      5.13337000      7.53466000      17      0.23644792     -0.08682611      0.18395618      -1      -1      -1      19
 Cl              8.13165000      3.59947000      4.63345000      17      0.13805364     -0.15495385     -0.11874037      -1       0       0      19
 Cl              0.69725000      9.23103000      9.42311000      17      0.00857881     -0.01278694      0.00989168       0      -1      -1      18
 Cl              7.59796000      0.14994000      3.50658000      17     -0.11276759      0.04513328      0.02514091      -1       0       0      20
 Cl              0.67654000      7.81318000      0.36192000      17     -0.19322288     -0.18575160      0.04717659       0      -1       0      19
 65
 energy=-260.62115464689714 cutoff=4.00000000 nneightol=1.20000000 pbc="T T T" Lattice="10.25000000       0.00000000       0.00000000       0.00000000      10.25000000       0.00000000       0.00000000       0.00000000      12.35000000" Properties=species:S:1:pos:R:3:Z:I:1:force:R:3:map_shift:I:3:n_neighb:I:1
 Li              6.19868000      9.28275000     12.25095000       3      0.32269015     -0.22849668     -0.05341676      -1      -1      -1      23
 Li              7.60994000      5.77536000      7.56484000       3     -0.01801555     -0.14552673     -0.25231904      -1      -1      -1      14
 Li              2.51679000      1.79586000      0.46404000       3     -0.11453578     -0.05749116     -0.08216876       0       0       0      16
 Li              1.45499000      7.74108000      2.57009000       3      0.03690052     -0.13626394      0.16290810       0      -1       0      18
 Li              3.09314000      2.24494000      3.93456000       3     -0.12961416      0.08501139      0.01747390       0       0       0      17
 Li              1.96695000      0.44438000      8.16939000       3     -0.02159582     -0.20100050      0.19152359       0       0      -1      17
 Li              7.52856000      5.67943000      2.66739000       3      0.11361831      0.27613036     -0.00973042      -1      -1       0      14
 Li              5.31238000      0.60096000      3.71433000       3      0.03413264      0.13293153      0.04622140      -1       0       0      17
 Li             10.03638000      9.65385000      7.08039000       3     -0.09914615      0.23363139      0.15812264      -1      -1      -1      13
 Li              9.75338000      4.23316000      2.74677000       3      0.05896304      0.03471565      0.11187273      -1       0       0      20
 Li              4.34487000      9.85771000      6.54489000       3      0.07607590      0.24282910      0.10779776       0      -1      -1      17
 Li              9.05784000      5.93553000      0.03617000       3     -0.12165793     -0.03647626     -0.02432774      -1      -1       0      21
 Li              0.35770000      3.78378000      9.03269000       3     -0.11669297      0.09027889      0.11183650       0       0      -1      17
 Li              3.06460000      5.36108000      7.32492000       3     -0.21447500     -0.33798472     -0.13142840       0      -1      -1      19
 Li              6.55352000      2.23770000     12.16880000       3     -0.23109200      0.08180411     -0.10518023      -1       0      -1      20
 Li              8.93546000      1.89862000     10.09640000       3     -0.22042205      0.04365752     -0.30067545      -1       0      -1      18
 Li              6.47419000      5.45222000     12.14844000       3      0.04755846      0.06427263      0.14848022      -1      -1      -1      17
 Li              4.98529000      4.11330000      5.33855000       3     -0.35218214     -0.17291570      0.33589544       0       0       0      16
 Li              4.73664000      6.88418000      1.72254000       3     -0.04753905     -0.17395937     -0.02170645       0      -1       0      17
 Li              2.16224000      7.80483000     10.73260000       3     -0.04452618     -0.02491158     -0.04556564       0      -1      -1      18
 Li              7.25719000      2.39388000      2.68610000       3     -0.01509445      0.12326564      0.01136491      -1       0       0      19
 Li              9.83686000      7.15186000      9.07253000       3      0.07043307     -0.09210246     -0.10123335      -1      -1      -1      19
 Li              0.05414000      3.83195000      5.74080000       3     -0.07997966      0.04577093      0.13135647       0       0       0      19
 Li              9.37997000      1.99299000      0.53831000       3      0.01180994     -0.07781891     -0.08960425      -1       0       0      18
 Li              7.42213000      1.44257000      5.49613000       3      0.06073534      0.12890113      0.28142079      -1       0       0      14
 Li              5.52092000      6.47186000      9.55056000       3     -0.03213939      0.14007557      0.05784873      -1      -1      -1      18
 Li              6.43456000      8.35356000      3.14827000       3      0.10750065      0.10308744     -0.41731629      -1      -1       0      18
 Li              7.06023000      0.12822000      9.55274000       3     -0.06259362      0.32088418     -0.11502562      -1       0      -1      20
 Li              6.18690000      2.81891000      7.70690000       3      0.05183069     -0.16997573     -0.34026018      -1       0      -1      18
 Li              8.85539000      8.89626000      0.62047000       3     -0.01487380     -0.13510153     -0.18193844      -1      -1       0      19
 P               2.90538000      6.24549000      4.15871000      15     -0.13227854      0.01390349     -0.38425299       0      -1       0      17
 P               2.92927000      4.70376000     10.90645000      15     -0.07262698     -0.24307677      0.04324829       0       0      -1      16
 P               0.97142000      4.42730000     12.02251000      15     -0.16375789     -0.06972552     -0.32750718       0       0      -1      19
 P               2.03602000      7.24987000      6.03373000      15      0.13771845     -0.59509547      0.34349746       0      -1       0      19
 P              10.22080000      6.35649000      5.59814000      15      0.05076196     -0.13656041     -0.07562296      -1      -1       0      17
 S               3.80559000      1.04780000      9.97835000      16      0.00629220      0.09684901      0.13327243       0       0      -1      17
 S               3.95686000      9.07229000      2.66744000      16      0.03981203     -0.05735663      0.21563389       0      -1       0      20
 S               4.42855000      9.30847000     10.20858000      16     -0.06416229     -0.08108978     -0.11153234       0      -1      -1      15
 S               2.02595000      9.33313000      5.86324000      16     -0.12243448      0.09586378     -0.05059092       0      -1       0      17
 S               8.94829000      7.55381000      6.76545000      16     -0.08780393      0.10186810     -0.04794408      -1      -1      -1      17
 S               0.27678000      2.04316000      7.33543000      16      0.04290741     -0.08868123      0.13772384       0       0      -1      17
 S               5.03323000      6.32209000      4.16774000      16      0.15530039      0.09789599     -0.22590893       0      -1       0      15
 S               4.09919000      6.29566000     11.69976000      16      0.01900686     -0.04783644     -0.11494717       0      -1      -1      18
 S               1.75738000      4.02671000      1.69549000      16      0.01054317      0.21037606      0.00283552       0       0       0      19
 S               1.84121000      5.67214000      9.32107000      16     -0.04674463      0.08115185      0.09088758       0      -1      -1      21
 S               7.96353000      3.91739000      1.04640000      16     -0.01450084      0.11556851     -0.00603945      -1       0       0      20
 S               7.89030000      5.94689000     10.12991000      16     -0.11009797      0.17582929      0.26319493      -1      -1      -1      22
 S               0.81933000      2.51741000     11.18421000      16      0.07179838      0.34895132     -0.33629946       0       0      -1      18
 S               9.71979000      6.71958000      3.57488000      16      0.09681404     -0.22912747     -0.17384652      -1      -1       0      19
 S               1.00743000      2.18697000      2.36303000      16      0.29508121      0.04226660     -0.07316061       0       0       0      16
 S               8.01753000      0.41626000     11.71656000      16     -0.19635965      0.34137988      0.11167003      -1       0      -1      19
 S               8.54829000      1.28679000      7.63883000      16     -0.08926174      0.01950720      0.24199095      -1       0      -1      18
 S               5.00603000      1.72631000      5.71903000      16      0.25400723      0.23429325      0.04461613       0       0       0      20
 S               7.03513000      7.39830000      1.07684000      16     -0.01670865      0.12946150      0.11558476      -1      -1       0      19
 S               8.21870000      4.09422000      9.12935000      16      0.17327302     -0.13169682      0.00604507      -1       0      -1      22
 S               4.76775000      1.96580000      1.71262000      16      0.32110467      0.03419364      0.15328641       0       0       0      19
 S               5.49554000      2.21035000      9.87917000      16      0.07218547      0.23930075     -0.01457192      -1       0      -1      22
 S               5.50967000      8.76876000      8.51631000      16      0.13023149     -0.06919875     -0.11729978      -1      -1      -1      20
 S               4.20584000      0.06543000      1.01110000      16     -0.03263350     -0.36652151      0.39703854       0       0       0      21
 S               2.51825000      4.35657000      5.08894000      16      0.13657071     -0.00295828     -0.01622928       0       0       0      17
 Cl              5.34000000      5.13310000      7.53500000      17      0.23065995     -0.09231677      0.18447478      -1      -1      -1      19
 Cl              8.13121000      3.59937000      4.63373000      17      0.14694885     -0.15519251     -0.10868664      -1       0       0      19
 Cl              0.69704000      9.23119000      9.42297000      17     -0.00369486     -0.02329244      0.01947814       0      -1      -1      18
 Cl              7.59751000      0.15005000      3.50652000      17     -0.10117186      0.03889673      0.02659702      -1       0       0      20
 Cl              0.67657000      7.81279000      0.36228000      17     -0.19285269     -0.18505229      0.05113836       0      -1       0      19
 65