 65
 energy=-260.62592180502469 cutoff=4.00000000 nneightol=1.20000000 pbc="T T T" Lattice="10.25000000       0.00000000       0.00000000       0.00000000      10.25000000       0.00000000       0.00000000       0.00000000      12.35000000" Properties=species:S:1:pos:R:3:Z:I:1:force:R:3:map_shift:I:3:n_neighb:I:1
 Li              6.20030000      9.28200000     12.24954000       3      0.31604380     -0.26713093      0.13914947      -1      -1      -1      23
 Li              7.61230000      5.77519000      7.56311000       3     -0.12847602     -0.12301490     -0.10313553      -1      -1      -1      14
 Li              2.51672000      1.79265000      0.46496000       3     -0.16075841     -0.10249086     -0.02764332       0       0       0      16
 Li              1.45255000      7.74107000      2.56984000       3      0.15087801     -0.06308929     -0.01456733       0      -1       0      18
 Li              3.09320000      2.24493000      3.93777000       3     -0.02676071      0.03840915      0.06148238       0       0       0      17
 Li              1.96757000      0.44835000      8.16852000       3      0.01295728     -0.21643884      0.13345883       0       0      -1      17
 Li              7.52926000      5.67911000      2.66657000       3      0.12729553      0.10397288     -0.00388165      -1      -1       0      14
 Li              5.31071000      0.59971000      3.71487000       3      0.17486981      0.05224342      0.03391153      -1       0       0      17
 Li             10.03432000      9.65550000      7.08202000       3     -0.02189870      0.05147735      0.09752779      -1      -1      -1      13
 Li              9.75566000      4.23598000      2.74568000       3      0.14502321      0.02613597      0.03312115      -1       0       0      20
 Li              4.34871000      9.85652000      6.54389000       3      0.09124102      0.25313472      0.06814562       0      -1      -1      17
 Li              9.05638000      5.93555000      0.03322000       3     -0.12311755     -0.00172540     -0.03771078      -1      -1       0      21
 Li              0.35707000      3.78223000      9.03363000       3     -0.10983662      0.10718499      0.12461820       0       0      -1      17
 Li              3.06248000      5.36410000      7.32583000       3     -0.18893925     -0.30129087     -0.15596252       0      -1      -1      19
 Li              6.55451000      2.23545000     12.16890000       3     -0.27521750      0.03934383     -0.04837191      -1       0      -1      20
 Li              8.93380000      1.90097000     10.09791000       3     -0.29738129      0.04926899     -0.26996937      -1       0      -1      18
 Li              6.47471000      5.45135000     12.14666000       3     -0.02192272      0.02483050      0.15313352      -1      -1      -1      17
 Li              4.98417000      4.11340000      5.33879000       3     -0.24162359     -0.25551614      0.27545430       0       0       0      16
 Li              4.73548000      6.88272000      1.72296000       3      0.08462651     -0.03821892      0.05810290       0      -1       0      17
 Li              2.16312000      7.80302000     10.73325000       3      0.04542873      0.00125171     -0.02852966       0      -1      -1      18
 Li              7.25566000      2.39688000      2.68491000       3     -0.17561894      0.18362641      0.00978029      -1       0       0      19
 Li              9.83638000      7.15389000      9.07193000       3      0.02822045     -0.11871694     -0.02289915      -1      -1      -1      19
 Li              0.04953000      3.83201000      5.74072000       3     -0.00118780      0.03273980     -0.13275913       0       0       0      19
 Li              9.37686000      1.99217000      0.54094000       3      0.05351606      0.02774236     -0.18374627      -1       0       0      18
 Li              7.42213000      1.44352000      5.49346000       3      0.01090479      0.02958780      0.11431434      -1       0       0      14
 Li              5.52083000      6.47206000      9.54957000       3     -0.14230247      0.16785310      0.05213353      -1      -1      -1      18
 Li              6.43624000      8.35404000      3.14838000       3      0.17269141      0.20139397     -0.33525084      -1      -1       0      18
 Li              7.06283000      0.12517000      9.55060000       3     -0.16530308      0.28930510     -0.14002256      -1       0      -1      20
 Li              6.18752000      2.81950000      7.70693000       3     -0.04420033     -0.19277878     -0.16842764      -1       0      -1      18
 Li              8.85463000      8.89416000      0.61958000       3      0.07844983     -0.07796902     -0.04294141      -1      -1       0      19
 P               2.90523000      6.24528000      4.15840000      15     -0.08955424     -0.08748458     -0.23674865       0      -1       0      17
 P               2.92928000      4.70318000     10.90718000      15     -0.05960344     -0.20702184      0.12991304       0       0      -1      16
 P               0.97141000      4.42774000     12.02190000      15     -0.07934860     -0.03883598     -0.30422543       0       0      -1      19
 P               2.03683000      7.24987000      6.03482000      15      0.13746183     -0.38565522      0.29448574       0      -1       0      19
 P              10.22008000      6.35712000      5.59750000      15      0.12017279      0.05126696     -0.16532376      -1      -1       0      17
 S               3.80542000      1.04789000      9.97860000      16     -0.13795627      0.04576550      0.03441956       0       0      -1      17
 S               3.95717000      9.07225000      2.66719000      16      0.04871164     -0.11765714      0.30726627       0      -1       0      20
 S               4.42859000      9.30801000     10.20867000      16     -0.09674175     -0.02169951     -0.17719140       0      -1      -1      15
 S               2.02566000      9.33222000      5.86266000      16     -0.01171445      0.00641017      0.03464622       0      -1       0      17
 S               8.94771000      7.55349000      6.76621000      16      0.00091819     -0.03632590     -0.08106194      -1      -1      -1      17
 S               0.27674000      2.04323000      7.33523000      16      0.12869914     -0.10717408      0.23680805       0       0      -1      17
 S               5.03322000      6.32211000      4.16782000      16     -0.00756609      0.10859023     -0.27579232       0      -1       0      15
 S               4.09906000      6.29534000     11.69974000      16      0.02999949      0.02823026     -0.21694827       0      -1      -1      18
 S               1.75772000      4.02659000      1.69580000      16     -0.03604977      0.24149587      0.15823981       0       0       0      19
 S               1.84168000      5.67239000      9.32097000      16     -0.11282215      0.12140290      0.03188816       0      -1      -1      21
 S               7.96366000      3.91675000      1.04639000      16      0.06584429      0.10408492      0.07182721      -1       0       0      20
 S               7.89080000      5.94728000     10.12986000      16     -0.04555046      0.09508116      0.16837150      -1      -1      -1      22
 S               0.81971000      2.51772000     11.18431000      16     -0.00861583      0.47512828     -0.35528956       0       0      -1      18
 S               9.71960000      6.71934000      3.57402000      16      0.07546182     -0.29162338     -0.07529405      -1      -1       0      19
 S               1.00736000      2.18690000      2.36337000      16      0.30154345     -0.05728773     -0.05863878       0       0       0      16
 S               8.01730000      0.41611000     11.71676000      16     -0.19355027      0.28211904      0.19457705      -1       0      -1      19
 S               8.54839000      1.28692000      7.63975000      16      0.06389894      0.02099673      0.38962808      -1       0      -1      18
 S               5.00613000      1.72601000      5.71951000      16      0.22160750      0.26355424      0.10915953       0       0       0      20
 S               7.03555000      7.39839000      1.07770000      16      0.07149038      0.03907175      0.07187853      -1      -1       0      19
 S               8.21805000      4.09478000      9.12861000      16      0.06512639      0.03079488     -0.06879712      -1       0      -1      22
 S               4.76780000      1.96551000      1.71249000      16      0.23074627      0.08145504      0.12757889       0       0       0      19
 S               5.49574000      2.21066000      9.87880000      16      0.01372682      0.27797008      0.00435929      -1       0      -1      22
 S               5.51016000      8.76839000      8.51719000      16      0.10100492     -0.02787664     -0.18627490      -1      -1      -1      20
 S               4.20551000      0.06550000      1.01087000      16     -0.10796273     -0.27193106      0.30815680       0       0       0      21
 S               2.51771000      4.35755000      5.08944000      16      0.06647503      0.07610788     -0.02578031       0       0       0      17
 Cl              5.33978000      5.13341000      7.53462000      17      0.14436993      0.04870031      0.00771844      -1      -1      -1      19
 Cl              8.13171000      3.59949000      4.63342000      17      0.15553530     -0.25847141     -0.10871020      -1       0       0      19
 Cl              0.69728000      9.23100000      9.42313000      17     -0.10805369     -0.11909739      0.00373857       0      -1      -1      18
 Cl              7.59802000      0.14993000      3.50659000      17     -0.04879658     -0.08885486     -0.00150446      -1       0       0      20
 Cl              0.67654000      7.81322000      0.36187000      17     -0.26650932     -0.20235066      0.01440565       0      -1       0      19
 65
 energy=-260.62593829130321 cutoff=4.00000000 nneightol=1.20000000 pbc="T T T" Lattice="10.25000000       0.00000000       0.00000000       0.00000000      10.25000000       0.00000000       0.00000000       0.00000000      12.35000000" Properties=species:S:1:pos:R:3:Z:I:1:force:R:3:map_shift:I:3:n_neighb:I:1
 Li              6.20008000      9.28208000     12.24971000       3      0.31826221     -0.26642898      0.13938295      -1      -1      -1      23
 Li              7.61200000      5.77518000      7.56331000       3     -0.12517669     -0.12213704     -0.10469430      -1      -1      -1      14
 Li              2.51670000      1.79302000      0.46485000       3     -0.15924217     -0.10430806     -0.02608402       0       0       0      16
 Li              1.45284000      7.74107000      2.56988000       3      0.14995355     -0.06310602     -0.01369293       0      -1       0      18
 Li              3.09319000      2.24493000      3.93741000       3     -0.02676543      0.03807702      0.06066597       0       0       0      17
 Li              1.96750000      0.44788000      8.16863000       3      0.01350377     -0.21503730      0.13463586       0       0      -1      17
 Li              7.52918000      5.67914000      2.66666000       3      0.12763653      0.10372906     -0.00361275      -1      -1       0      14
 Li              5.31092000      0.59986000      3.71480000       3      0.17332651      0.05174754      0.03435237      -1       0       0      17
 Li             10.03458000      9.65529000      7.08184000       3     -0.02360868      0.05264741      0.09824326      -1      -1      -1      13
 Li              9.75541000      4.23566000      2.74580000       3      0.14519866      0.02638609      0.03298667      -1       0       0      20
 Li              4.34825000      9.85664000      6.54400000       3      0.09440495      0.25372033      0.06663259       0      -1      -1      17
 Li              9.05656000      5.93554000      0.03356000       3     -0.12456154     -0.00133243     -0.03895968      -1      -1       0      21
 Li              0.35716000      3.78242000      9.03353000       3     -0.10963717      0.10646255      0.12454369       0       0      -1      17
 Li              3.06277000      5.36374000      7.32572000       3     -0.19095535     -0.29918646     -0.15459479       0      -1      -1      19
 Li              6.55437000      2.23571000     12.16889000       3     -0.27365221      0.03834931     -0.04754299      -1       0      -1      20
 Li              8.93398000      1.90070000     10.09775000       3     -0.29838615      0.04969651     -0.26950662      -1       0      -1      18
 Li              6.47464000      5.45145000     12.14688000       3     -0.02167987      0.02454148      0.15239801      -1      -1      -1      17
 Li              4.98429000      4.11339000      5.33877000       3     -0.24177806     -0.25616333      0.27475371       0       0       0      16
 Li              4.73562000      6.88289000      1.72292000       3      0.08414382     -0.03885425      0.05827513       0      -1       0      17
 Li              2.16301000      7.80323000     10.73317000       3      0.04518334      0.00191087     -0.02906481       0      -1      -1      18
 Li              7.25581000      2.39651000      2.68508000       3     -0.17475884      0.18581173      0.00740998      -1       0       0      19
 Li              9.83644000      7.15366000      9.07201000       3      0.02779558     -0.11842073     -0.02365699      -1      -1      -1      19
 Li              0.05007000      3.83201000      5.74074000       3     -0.00456831      0.03316521     -0.13195512       0       0       0      19
 Li              9.37726000      1.99226000      0.54063000       3      0.04984634      0.02694731     -0.18344918      -1       0       0      18
 Li              7.42213000      1.44341000      5.49379000       3      0.01010879      0.03005416      0.11343494      -1       0       0      14
 Li              5.52084000      6.47203000      9.54968000       3     -0.14222934      0.16821470      0.05218058      -1      -1      -1      18
 Li              6.43605000      8.35398000      3.14836000       3      0.17321851      0.20103839     -0.33489467      -1      -1       0      18
 Li              7.06255000      0.12552000      9.55086000       3     -0.16533186      0.28856150     -0.14044227      -1       0      -1      20
 Li              6.18745000      2.81943000      7.70693000       3     -0.04358681     -0.19235980     -0.16902320      -1       0      -1      18
 Li              8.85473000      8.89441000      0.61968000       3      0.07792821     -0.07882603     -0.04321823      -1      -1       0      19
 P               2.90525000      6.24531000      4.15844000      15     -0.08893200     -0.08876475     -0.23700470       0      -1       0      17
 P               2.92928000      4.70325000     10.90709000      15     -0.05905608     -0.20724159      0.12989290       0       0      -1      16
 P               0.97141000      4.42769000     12.02198000      15     -0.07924549     -0.03770573     -0.30567393       0       0      -1      19
 P               2.03673000      7.24987000      6.03468000      15      0.13912761     -0.38684138      0.29652632       0      -1       0      19
 P              10.22017000      6.35704000      5.59758000      15      0.11906916      0.05060888     -0.16533105      -1      -1       0      17
 S               3.80545000      1.04788000      9.97858000      16     -0.14009159      0.04599682      0.03541875       0       0      -1      17
 S               3.95713000      9.07225000      2.66721000      16      0.04847713     -0.11613569      0.30624256       0      -1       0      20
 S               4.42858000      9.30806000     10.20867000      16     -0.09610232     -0.02204626     -0.17723160       0      -1      -1      15
 S               2.02569000      9.33233000      5.86273000      16     -0.01273090      0.00515194      0.03348077       0      -1       0      17
 S               8.94778000      7.55354000      6.76612000      16     -0.00024805     -0.03740348     -0.08010726      -1      -1      -1      17
 S               0.27674000      2.04323000      7.33525000      16      0.12894146     -0.10757054      0.23730556       0       0      -1      17
 S               5.03322000      6.32210000      4.16781000      16     -0.00767405      0.10867011     -0.27561278       0      -1       0      15
 S               4.09908000      6.29537000     11.69974000      16      0.03010743      0.02805797     -0.21687890       0      -1      -1      18
 S               1.75768000      4.02661000      1.69576000      16     -0.03342888      0.24175055      0.16010789       0       0       0      19
 S               1.84162000      5.67236000      9.32099000      16     -0.11206966      0.12263743      0.02955120       0      -1      -1      21
 S               7.96365000      3.91683000      1.04638000      16      0.06616519      0.10245112      0.07221359      -1       0       0      20
 S               7.89074000      5.94724000     10.12986000      16     -0.04530392      0.09503702      0.16891989      -1      -1      -1      22
 S               0.81966000      2.51768000     11.18430000      16     -0.00693004      0.47525786     -0.35630276       0       0      -1      18
 S               9.71962000      6.71937000      3.57411000      16      0.07509997     -0.29169184     -0.07695108      -1      -1       0      19
 S               1.00737000      2.18691000      2.36333000      16      0.30115022     -0.05763337     -0.05779758       0       0       0      16
 S               8.01733000      0.41612000     11.71673000      16     -0.19435172      0.28256529      0.19485141      -1       0      -1      19
 S               8.54837000      1.28691000      7.63965000      16      0.06519451      0.02057297      0.39004005      -1       0      -1      18
 S               5.00612000      1.72604000      5.71945000      16      0.22145539      0.26258736      0.10996781       0       0       0      20
 S               7.03550000      7.39837000      1.07760000      16      0.07217484      0.04000443      0.07292538      -1      -1       0      19
 S               8.21813000      4.09472000      9.12869000      16      0.06588819      0.03075929     -0.07098319      -1       0      -1      22
 S               4.76780000      1.96554000      1.71250000      16      0.22953639      0.08114932      0.12734050       0       0       0      19
 S               5.49571000      2.21062000      9.87884000      16      0.01361875      0.27899609      0.00373148      -1       0      -1      22
 S               5.51011000      8.76842000      8.51708000      16      0.10065656     -0.02740152     -0.18608084      -1      -1      -1      20
 S               4.20555000      0.06549000      1.01090000      16     -0.10857260     -0.27040357      0.30836919       0       0       0      21
 S               2.51776000      4.35743000      5.08938000      16      0.06675795      0.07721022     -0.02606906       0       0       0      17
 Cl              5.33980000      5.13337000      7.53466000      17      0.14376883      0.04786731      0.00795399      -1      -1      -1      19
 Cl              8.13165000      3.59947000      4.63345000      17      0.15635229     -0.25847592     -0.10709614      -1       0       0      19
 Cl              0.69725000      9.23103000      9.42311000      17     -0.10959261     -0.12053941      0.00497179       0      -1      -1      18
 Cl              7.59796000      0.14994000      3.50658000      17     -0.04725239     -0.08999048     -0.00122160      -1       0       0      20
 Cl              0.67654000      7.81318000      0.36192000      17     -0.26655186     -0.20238716      0.01502828       0      -1       0      19
 65
 energy=-260.62560109751274 cutoff=4.00000000 nneightol=1.20000000 pbc="T T T" Lattice="10.25000000       0.00000000       0.00000000       0.00000000      10.25000000       0.00000000       0.00000000       0.00000000      12.35000000" Properties=species:S:1:pos:R:3:Z:I:1:force:R:3:map_shift:I:3:n_neighb:I:1
 Li              6.19868000      9.28275000     12.25095000       3      0.33227048     -0.26137383      0.14025788      -1      -1      -1      23
 Li              7.60994000      5.77536000      7.56484000       3     -0.10273472     -0.11689592     -0.11483969      -1      -1      -1      14
 Li              2.51679000      1.79586000      0.46404000       3     -0.14885636     -0.11755982     -0.01388022       0       0       0      16
 Li              1.45499000      7.74108000      2.57009000       3      0.14303400     -0.06338520     -0.00736169       0      -1       0      18
 Li              3.09314000      2.24494000      3.93456000       3     -0.02703981      0.03575037      0.05427775       0       0       0      17
 Li              1.96695000      0.44438000      8.16939000       3      0.01763977     -0.20481899      0.14328473       0       0      -1      17
 Li              7.52856000      5.67943000      2.66739000       3      0.13007726      0.10242866     -0.00158924      -1      -1       0      14
 Li              5.31238000      0.60096000      3.71433000       3      0.16258955      0.04868092      0.03712107      -1       0       0      17
 Li             10.03638000      9.65385000      7.08039000       3     -0.03570502      0.06008794      0.10364503      -1      -1      -1      13
 Li              9.75338000      4.23316000      2.74677000       3      0.14765120      0.02828960      0.03187286      -1       0       0      20
 Li              4.34487000      9.85771000      6.54489000       3      0.11761736      0.25766679      0.05578675       0      -1      -1      17
 Li              9.05784000      5.93553000      0.03617000       3     -0.13450064      0.00154557     -0.04791976      -1      -1       0      21
 Li              0.35770000      3.78378000      9.03269000       3     -0.10757387      0.10089998      0.12411717       0       0      -1      17
 Li              3.06460000      5.36108000      7.32492000       3     -0.20257391     -0.28406173     -0.14442714       0      -1      -1      19
 Li              6.55352000      2.23770000     12.16880000       3     -0.26358256      0.03091583     -0.04171798      -1       0      -1      20
 Li              8.93546000      1.89862000     10.09640000       3     -0.30622809      0.05284214     -0.26509390      -1       0      -1      18
 Li              6.47419000      5.45222000     12.14844000       3     -0.01994763      0.02258447      0.14710775      -1      -1      -1      17
 Li              4.98529000      4.11330000      5.33855000       3     -0.24313152     -0.26026460      0.27013330       0       0       0      16
 Li              4.73664000      6.88418000      1.72254000       3      0.08063868     -0.04364738      0.05952377       0      -1       0      17
 Li              2.16224000      7.80483000     10.73260000       3      0.04316130      0.00685748     -0.03285552       0      -1      -1      18
 Li              7.25719000      2.39388000      2.68610000       3     -0.16992629      0.20011744     -0.00763607      -1       0       0      19
 Li              9.83686000      7.15186000      9.07253000       3      0.02489890     -0.11572185     -0.02896727      -1      -1      -1      19
 Li              0.05414000      3.83195000      5.74080000       3     -0.03028823      0.03613313     -0.12498099       0       0       0      19
 Li              9.37997000      1.99299000      0.53831000       3      0.02522497      0.02121748     -0.18133309      -1       0       0      18
 Li              7.42213000      1.44257000      5.49613000       3      0.00421925      0.03350176      0.10693439      -1       0       0      14
 Li              5.52092000      6.47186000      9.55056000       3     -0.14158841      0.17032560      0.05192715      -1      -1      -1      18
 Li              6.43456000      8.35356000      3.14827000       3      0.17762792      0.19828907     -0.33218552      -1      -1       0      18
 Li              7.06023000      0.12822000      9.55274000       3     -0.16461389      0.28334796     -0.14308012      -1       0      -1      20
 Li              6.18690000      2.81891000      7.70690000       3     -0.03932056     -0.18861360     -0.17324628      -1       0      -1      18
 Li              8.85539000      8.89626000      0.62047000       3      0.07502299     -0.08520951     -0.04517276      -1      -1       0      19
 P               2.90538000      6.24549000      4.15871000      15     -0.08444735     -0.09777580     -0.23890141       0      -1       0      17
 P               2.92927000      4.70376000     10.90645000      15     -0.05434557     -0.20819442      0.12873685       0       0      -1      16
 P               0.97142000      4.42730000     12.02251000      15     -0.07883644     -0.02926439     -0.31567650       0       0      -1      19
 P               2.03602000      7.24987000      6.03373000      15      0.15124526     -0.39495264      0.31039406       0      -1       0      19
 P              10.22080000      6.35649000      5.59814000      15      0.11241899      0.04477946     -0.16457523      -1      -1       0      17
 S               3.80559000      1.04780000      9.97835000      16     -0.15470273      0.04775199      0.04336597       0       0      -1      17
 S               3.95686000      9.07229000      2.66744000      16      0.04631967     -0.10475579      0.29834626       0      -1       0      20
 S               4.42855000      9.30847000     10.20858000      16     -0.09194195     -0.02451470     -0.17684261       0      -1      -1      15
 S               2.02595000      9.33313000      5.86324000      16     -0.02013189     -0.00380926      0.02485173       0      -1       0      17
 S               8.94829000      7.55381000      6.76545000      16     -0.00872035     -0.04413233     -0.07293990      -1      -1      -1      17
 S               0.27678000      2.04316000      7.33543000      16      0.13103643     -0.11008249      0.24049029       0       0      -1      17
 S               5.03323000      6.32209000      4.16774000      16     -0.00851423      0.10903787     -0.27395498       0      -1       0      15
 S               4.09919000      6.29566000     11.69976000      16      0.03072221      0.02691292     -0.21651224       0      -1      -1      18
 S               1.75738000      4.02671000      1.69549000      16     -0.01510316      0.24361453      0.17320955       0       0       0      19
 S               1.84121000      5.67214000      9.32107000      16     -0.10703943      0.13112224      0.01443259       0      -1      -1      21
 S               7.96353000      3.91739000      1.04640000      16      0.06822292      0.09152355      0.07293659      -1       0       0      20
 S               7.89030000      5.94689000     10.12991000      16     -0.04338388      0.09464773      0.17287852      -1      -1      -1      22
 S               0.81933000      2.51741000     11.18421000      16      0.00514581      0.47563770     -0.36353236       0       0      -1      18
 S               9.71979000      6.71958000      3.57488000      16      0.07138295     -0.29186506     -0.09087348      -1      -1       0      19
 S               1.00743000      2.18697000      2.36303000      16      0.29835853     -0.05997855     -0.05199818       0       0       0      16
 S               8.01753000      0.41626000     11.71656000      16     -0.19975692      0.28616529      0.19595955      -1       0      -1      19
 S               8.54829000      1.28679000      7.63883000      16      0.07360975      0.01754401      0.39342715      -1       0      -1      18
 S               5.00603000      1.72631000      5.71903000      16      0.22075029      0.25565900      0.11596174       0       0       0      20
 S               7.03513000      7.39830000      1.07684000      16      0.07755243      0.04616571      0.08143548      -1      -1       0      19
 S               8.21870000      4.09422000      9.12935000      16      0.07155496      0.03117528     -0.08878069      -1       0      -1      22
 S               4.76775000      1.96580000      1.71262000      16      0.22121268      0.07836847      0.12557974       0       0       0      19
 S               5.49554000      2.21035000      9.87917000      16      0.01259720      0.28644763     -0.00075439      -1       0      -1      22
 S               5.50967000      8.76876000      8.51631000      16      0.09858042     -0.02433251     -0.18491326      -1      -1      -1      20
 S               4.20584000      0.06543000      1.01110000      16     -0.11254116     -0.25933720      0.30985344       0       0       0      21
 S               2.51825000      4.35657000      5.08894000      16      0.06880183      0.08503027     -0.02815192       0       0       0      17
 Cl              5.34000000      5.13310000      7.53500000      17      0.13830319      0.04178824      0.00894419      -1      -1      -1      19
 Cl              8.13121000      3.59937000      4.63373000      17      0.16226259     -0.25860230     -0.09545933      -1       0       0      19
 Cl              0.69704000      9.23119000      9.42297000      17     -0.12137050     -0.13109410      0.01348017       0      -1      -1      18
 Cl              7.59751000      0.15005000      3.50652000      17     -0.03636730     -0.09826604      0.00073877      -1       0       0      20
 Cl              0.67657000      7.81279000      0.36228000      17     -0.26693737     -0.20234406      0.01914149       0      -1       0      19
 65