 65
 energy=-260.63856602145137 cutoff=4.00000000 nneightol=1.20000000 pbc="T T T" Lattice="10.25000000       0.00000000       0.00000000       0.00000000      10.25000000       0.00000000       0.00000000       0.00000000      12.35000000" Properties=species:S:1:pos:R:3:Z:I:1:force:R:3:map_shift:I:3:n_neighb:I:1
 Li              6.20030000      9.28200000     12.24954000       3      0.26013866     -0.27246653      0.13985119      -1      -1      -1      23
 Li              7.61230000      5.77519000      7.56311000       3     -0.12075700     -0.14433823     -0.07464880      -1      -1      -1      14
 Li              2.51672000      1.79265000      0.46496000       3     -0.18651567     -0.01596214     -0.02049693       0       0       0      16
 Li              1.45255000      7.74107000      2.56984000       3      0.20118261     -0.06407302     -0.09784610       0      -1       0      18
 Li              3.09320000      2.24493000      3.93777000       3     -0.09274502     -0.13203067     -0.00940399       0       0       0      17
 Li              1.96757000      0.44835000      8.16852000       3      0.09726617     -0.17591073      0.23138569       0       0      -1      17
 Li              7.52926000      5.67911000      2.66657000       3      0.21994698      0.11753022     -0.13443562      -1      -1       0      14
 Li              5.31071000      0.59971000      3.71487000       3      0.14098420      0.13668449      0.08743818      -1       0       0      17
 Li             10.03432000      9.65550000      7.08202000       3      0.10953540      0.06009777      0.20645337      -1      -1      -1      13
 Li              9.75566000      4.23598000      2.74568000       3      0.08075521      0.02780849      0.01844316      -1       0       0      20
 Li              4.34871000      9.85652000      6.54389000       3      0.06402902      0.34579860      0.16434595       0      -1      -1      17
 Li              9.05638000      5.93555000      0.03322000       3      0.02851220      0.12271197     -0.01932617      -1      -1       0      21
 Li              0.35707000      3.78223000      9.03363000       3     -0.08880879      0.03147752      0.13815942       0       0      -1      17
 Li              3.06248000      5.36410000      7.32583000       3     -0.13972848     -0.31605352     -0.12878419       0      -1      -1      19
 Li              6.55451000      2.23545000     12.16890000       3     -0.36744093      0.13797959      0.03889211      -1       0      -1      20
 Li              8.93380000      1.90097000     10.09791000       3     -0.25952824     -0.02110678     -0.21015584      -1       0      -1      18
 Li              6.47471000      5.45135000     12.14666000       3     -0.08544669     -0.02347505      0.11903957      -1      -1      -1      17
 Li              4.98417000      4.11340000      5.33879000       3     -0.21354478     -0.19559802      0.24928315       0       0       0      16
 Li              4.73548000      6.88272000      1.72296000       3     -0.05271050     -0.12107408      0.16160867       0      -1       0      17
 Li              2.16312000      7.80302000     10.73325000       3      0.17859499      0.02489665      0.00825539       0      -1      -1      18
 Li              7.25566000      2.39688000      2.68491000       3     -0.05412781      0.15052050     -0.14676398      -1       0       0      19
 Li              9.83638000      7.15389000      9.07193000       3     -0.09509198     -0.04758091      0.05605593      -1      -1      -1      19
 Li              0.04953000      3.83201000      5.74072000       3     -0.11464132     -0.01792135     -0.13460115       0       0       0      19
 Li              9.37686000      1.99217000      0.54094000       3      0.16672511      0.01138176     -0.14519602      -1       0       0      18
 Li              7.42213000      1.44352000      5.49346000       3     -0.05721145     -0.01411933      0.12249392      -1       0       0      14
 Li              5.52083000      6.47206000      9.54957000       3     -0.14012471      0.16607308      0.04659625      -1      -1      -1      18
 Li              6.43624000      8.35404000      3.14838000       3      0.14992941      0.11012610     -0.28412607      -1      -1       0      18
 Li              7.06283000      0.12517000      9.55060000       3     -0.19470054      0.37476771     -0.23624344      -1       0      -1      20
 Li              6.18752000      2.81950000      7.70693000       3      0.08381411     -0.17100794     -0.06702469      -1       0      -1      18
 Li              8.85463000      8.89416000      0.61958000       3      0.06459878     -0.02462270     -0.31482308      -1      -1       0      19
 P               2.90523000      6.24528000      4.15840000      15     -0.07462328     -0.14663482     -0.12884113       0      -1       0      17
 P               2.92928000      4.70318000     10.90718000      15      0.08344420     -0.33135925      0.08687049       0       0      -1      16
 P               0.97141000      4.42774000     12.02190000      15     -0.11220918     -0.14020429     -0.39951177       0       0      -1      19
 P               2.03683000      7.24987000      6.03482000      15      0.29270627      0.05454153      0.21547255       0      -1       0      19
 P              10.22008000      6.35712000      5.59750000      15     -0.03072016      0.05197480     -0.16190134      -1      -1       0      17
 S               3.80542000      1.04789000      9.97860000      16     -0.06158237      0.15842881     -0.02127718       0       0      -1      17
 S               3.95717000      9.07225000      2.66719000      16     -0.01517099     -0.04288542      0.46231196       0      -1       0      20
 S               4.42859000      9.30801000     10.20867000      16     -0.13637354      0.03622064     -0.22203005       0      -1      -1      15
 S               2.02566000      9.33222000      5.86266000      16     -0.06392897     -0.26030867      0.07010003       0      -1       0      17
 S               8.94771000      7.55349000      6.76621000      16     -0.03415861     -0.10309842      0.04461996      -1      -1      -1      17
 S               0.27674000      2.04323000      7.33523000      16      0.03683617     -0.06655252      0.17417000       0       0      -1      17
 S               5.03322000      6.32211000      4.16782000      16     -0.05305835      0.18241637     -0.22809369       0      -1       0      15
 S               4.09906000      6.29534000     11.69974000      16     -0.11429558      0.10571033     -0.22902628       0      -1      -1      18
 S               1.75772000      4.02659000      1.69580000      16     -0.09104492      0.28193379      0.10897855       0       0       0      19
 S               1.84168000      5.67239000      9.32097000      16     -0.09344506     -0.06281283      0.10018420       0      -1      -1      21
 S               7.96366000      3.91675000      1.04639000      16     -0.08707963      0.13015163     -0.00567921      -1       0       0      20
 S               7.89080000      5.94728000     10.12986000      16      0.05581726      0.02887080      0.19620213      -1      -1      -1      22
 S               0.81971000      2.51772000     11.18431000      16      0.05949901      0.36602932     -0.28605877       0       0      -1      18
 S               9.71960000      6.71934000      3.57402000      16      0.11135841     -0.43009289     -0.09586995      -1      -1       0      19
 S               1.00736000      2.18690000      2.36337000      16      0.31884828     -0.01777273     -0.03350262       0       0       0      16
 S               8.01730000      0.41611000     11.71676000      16     -0.29502086      0.30948993      0.13495403      -1       0      -1      19
 S               8.54839000      1.28692000      7.63975000      16      0.02772041      0.00739801      0.34800015      -1       0      -1      18
 S               5.00613000      1.72601000      5.71951000      16      0.12821255      0.23493553      0.17776152       0       0       0      20
 S               7.03555000      7.39839000      1.07770000      16      0.27477578      0.12449640     -0.06912594      -1      -1       0      19
 S               8.21805000      4.09478000      9.12861000      16      0.10473659      0.30920709     -0.05049037      -1       0      -1      22
 S               4.76780000      1.96551000      1.71249000      16      0.14120882     -0.08174554      0.09072301       0       0       0      19
 S               5.49574000      2.21066000      9.87880000      16      0.04999728      0.19490448      0.09878281      -1       0      -1      22
 S               5.51016000      8.76839000      8.51719000      16      0.16492060     -0.03791526     -0.13982815      -1      -1      -1      20
 S               4.20551000      0.06550000      1.01087000      16      0.02853302     -0.10379702      0.21791887       0       0       0      21
 S               2.51771000      4.35755000      5.08944000      16     -0.00200199      0.01431790     -0.02493035       0       0       0      17
 Cl              5.33978000      5.13341000      7.53462000      17      0.15092510      0.01572131      0.06101160      -1      -1      -1      19
 Cl              8.13171000      3.59949000      4.63342000      17      0.12370404     -0.37708980     -0.13771969      -1       0       0      19
 Cl              0.69728000      9.23100000      9.42313000      17     -0.22559844     -0.19476625      0.03567154       0      -1      -1      18
 Cl              7.59802000      0.14993000      3.50659000      17     -0.09013741     -0.04249092     -0.12351195      -1       0       0      20
 Cl              0.67654000      7.81322000      0.36187000      17     -0.15568338     -0.22773544     -0.03076088       0      -1       0      19
 65
 energy=-260.63863588173865 cutoff=4.00000000 nneightol=1.20000000 pbc="T T T" Lattice="10.25000000       0.00000000       0.00000000       0.00000000      10.25000000       0.00000000       0.00000000       0.00000000      12.35000000" Properties=species:S:1:pos:R:3:Z:I:1:force:R:3:map_shift:I:3:n_neighb:I:1
 Li              6.20008000      9.28208000     12.24971000       3      0.26227246     -0.27208908      0.13991023      -1      -1      -1      23
 Li              7.61200000      5.77518000      7.56331000       3     -0.11746623     -0.14378280     -0.07605227      -1      -1      -1      14
 Li              2.51670000      1.79302000      0.46485000       3     -0.18454415     -0.01816709     -0.01867952       0       0       0      16
 Li              1.45284000      7.74107000      2.56988000       3      0.20057754     -0.06412080     -0.09708607       0      -1       0      18
 Li              3.09319000      2.24493000      3.93741000       3     -0.09296117     -0.13209817     -0.01009387       0       0       0      17
 Li              1.96750000      0.44788000      8.16863000       3      0.09743938     -0.17450186      0.23222321       0       0      -1      17
 Li              7.52918000      5.67914000      2.66666000       3      0.22019488      0.11731741     -0.13401637      -1      -1       0      14
 Li              5.31092000      0.59986000      3.71480000       3      0.13920783      0.13620734      0.08798260      -1       0       0      17
 Li             10.03458000      9.65529000      7.08184000       3      0.10791406      0.06120153      0.20736880      -1      -1      -1      13
 Li              9.75541000      4.23566000      2.74580000       3      0.08125088      0.02797812      0.01854204      -1       0       0      20
 Li              4.34825000      9.85664000      6.54400000       3      0.06677148      0.34598123      0.16332044       0      -1      -1      17
 Li              9.05656000      5.93554000      0.03356000       3      0.02708456      0.12301723     -0.02151783      -1      -1       0      21
 Li              0.35716000      3.78242000      9.03353000       3     -0.08841187      0.03081807      0.13816520       0       0      -1      17
 Li              3.06277000      5.36374000      7.32572000       3     -0.14203913     -0.31436738     -0.12746762       0      -1      -1      19
 Li              6.55437000      2.23571000     12.16889000       3     -0.36606512      0.13704460      0.03964753      -1       0      -1      20
 Li              8.93398000      1.90070000     10.09775000       3     -0.26126653     -0.01998277     -0.20915608      -1       0      -1      18
 Li              6.47464000      5.45145000     12.14688000       3     -0.08495208     -0.02375575      0.11795946      -1      -1      -1      17
 Li              4.98429000      4.11339000      5.33877000       3     -0.21366003     -0.19635163      0.24832937       0       0       0      16
 Li              4.73562000      6.88289000      1.72292000       3     -0.05288870     -0.12138435      0.16168744       0      -1       0      17
 Li              2.16301000      7.80323000     10.73317000       3      0.17803331      0.02515264      0.00761046       0      -1      -1      18
 Li              7.25581000      2.39651000      2.68508000       3     -0.05318436      0.15255020     -0.14918482      -1       0       0      19
 Li              9.83644000      7.15366000      9.07201000       3     -0.09566916     -0.04755822      0.05572672      -1      -1      -1      19
 Li              0.05007000      3.83201000      5.74074000       3     -0.11671192     -0.01653951     -0.13376426       0       0       0      19
 Li              9.37726000      1.99226000      0.54063000       3      0.16296942      0.01083255     -0.14530055      -1       0       0      18
 Li              7.42213000      1.44341000      5.49379000       3     -0.05808870     -0.01365045      0.12140087      -1       0       0      14
 Li              5.52084000      6.47203000      9.54968000       3     -0.13991866      0.16668106      0.04675616      -1      -1      -1      18
 Li              6.43605000      8.35398000      3.14836000       3      0.15004984      0.10970412     -0.28394383      -1      -1       0      18
 Li              7.06255000      0.12552000      9.55086000       3     -0.19442016      0.37434055     -0.23688247      -1       0      -1      20
 Li              6.18745000      2.81943000      7.70693000       3      0.08443751     -0.17047895     -0.06743355      -1       0      -1      18
 Li              8.85473000      8.89441000      0.61968000       3      0.06414505     -0.02555178     -0.31508753      -1      -1       0      19
 P               2.90525000      6.24531000      4.15844000      15     -0.07393424     -0.14787044     -0.12901096       0      -1       0      17
 P               2.92928000      4.70325000     10.90709000      15      0.08362448     -0.33166001      0.08720299       0       0      -1      16
 P               0.97141000      4.42769000     12.02198000      15     -0.11195494     -0.13880424     -0.40116568       0       0      -1      19
 P               2.03673000      7.24987000      6.03468000      15      0.29373250      0.05305927      0.21718939       0      -1       0      19
 P              10.22017000      6.35704000      5.59758000      15     -0.03180330      0.05129501     -0.16168098      -1      -1       0      17
 S               3.80545000      1.04788000      9.97858000      16     -0.06320707      0.15864473     -0.02049230       0       0      -1      17
 S               3.95713000      9.07225000      2.66721000      16     -0.01563962     -0.04121546      0.46099087       0      -1       0      20
 S               4.42858000      9.30806000     10.20867000      16     -0.13586885      0.03579413     -0.22176839       0      -1      -1      15
 S               2.02569000      9.33233000      5.86273000      16     -0.06474413     -0.26120663      0.06864221       0      -1       0      17
 S               8.94778000      7.55354000      6.76612000      16     -0.03521150     -0.10399292      0.04518723      -1      -1      -1      17
 S               0.27674000      2.04323000      7.33525000      16      0.03730517     -0.06694723      0.17475853       0       0      -1      17
 S               5.03322000      6.32210000      4.16781000      16     -0.05315224      0.18248555     -0.22814732       0      -1       0      15
 S               4.09908000      6.29537000     11.69974000      16     -0.11385931      0.10559790     -0.22891654       0      -1      -1      18
 S               1.75768000      4.02661000      1.69576000      16     -0.08853908      0.28214181      0.11100455       0       0       0      19
 S               1.84162000      5.67236000      9.32099000      16     -0.09282443     -0.06138266      0.09801687       0      -1      -1      21
 S               7.96365000      3.91683000      1.04638000      16     -0.08651638      0.12831942     -0.00600566      -1       0       0      20
 S               7.89074000      5.94724000     10.12986000      16      0.05621573      0.02850527      0.19701614      -1      -1      -1      22
 S               0.81966000      2.51768000     11.18430000      16      0.06090867      0.36640140     -0.28687220       0       0      -1      18
 S               9.71962000      6.71937000      3.57411000      16      0.11137160     -0.43008208     -0.09716504      -1      -1       0      19
 S               1.00737000      2.18691000      2.36333000      16      0.31835622     -0.01820632     -0.03267344       0       0       0      16
 S               8.01733000      0.41612000     11.71673000      16     -0.29575021      0.30960415      0.13513402      -1       0      -1      19
 S               8.54837000      1.28691000      7.63965000      16      0.02868088      0.00651564      0.34839432      -1       0      -1      18
 S               5.00612000      1.72604000      5.71945000      16      0.12812044      0.23352493      0.17893801       0       0       0      20
 S               7.03550000      7.39837000      1.07760000      16      0.27519882      0.12541224     -0.06795988      -1      -1       0      19
 S               8.21813000      4.09472000      9.12869000      16      0.10515584      0.30963863     -0.05195155      -1       0      -1      22
 S               4.76780000      1.96554000      1.71250000      16      0.13986484     -0.08173778      0.09031393       0       0       0      19
 S               5.49571000      2.21062000      9.87884000      16      0.05033932      0.19556114      0.09802069      -1       0      -1      22
 S               5.51011000      8.76842000      8.51708000      16      0.16455200     -0.03710086     -0.13950044      -1      -1      -1      20
 S               4.20555000      0.06549000      1.01090000      16      0.02790263     -0.10252919      0.21819004       0       0       0      21
 S               2.51776000      4.35743000      5.08938000      16     -0.00200994      0.01591268     -0.02541659       0       0       0      17
 Cl              5.33980000      5.13337000      7.53466000      17      0.15018997      0.01479313      0.06114983      -1      -1      -1      19
 Cl              8.13165000      3.59947000      4.63345000      17      0.12458975     -0.37707665     -0.13633164      -1       0       0      19
 Cl              0.69725000      9.23103000      9.42311000      17     -0.22681489     -0.19657280      0.03708593       0      -1      -1      18
 Cl              7.59796000      0.14994000      3.50658000      17     -0.08845604     -0.04364599     -0.12302457      -1       0       0      20
 Cl              0.67654000      7.81318000      0.36192000      17     -0.15592294     -0.22762184     -0.03011624       0      -1       0      19
 65
 energy=-260.63872529944484 cutoff=4.00000000 nneightol=1.20000000 pbc="T T T" Lattice="10.25000000       0.00000000       0.00000000       0.00000000      10.25000000       0.00000000       0.00000000       0.00000000      12.35000000" Properties=species:S:1:pos:R:3:Z:I:1:force:R:3:map_shift:I:3:n_neighb:I:1
 Li              6.19868000      9.28275000     12.25095000       3      0.27563614     -0.26919615      0.13957492      -1      -1      -1      23
 Li              7.60994000      5.77536000      7.56484000       3     -0.09533068     -0.14083605     -0.08512412      -1      -1      -1      14
 Li              2.51679000      1.79586000      0.46404000       3     -0.17090227     -0.03413551     -0.00489578       0       0       0      16
 Li              1.45499000      7.74108000      2.57009000       3      0.19596906     -0.06464516     -0.09133154       0      -1       0      18
 Li              3.09314000      2.24494000      3.93456000       3     -0.09479524     -0.13247394     -0.01547642       0       0       0      17
 Li              1.96695000      0.44438000      8.16939000       3      0.09886645     -0.16430338      0.23841437       0       0      -1      17
 Li              7.52856000      5.67943000      2.66739000       3      0.22201195      0.11601892     -0.13107892      -1      -1       0      14
 Li              5.31238000      0.60096000      3.71433000       3      0.12682098      0.13332513      0.09148275      -1       0       0      17
 Li             10.03638000      9.65385000      7.08039000       3      0.09646345      0.06812449      0.21430218      -1      -1      -1      13
 Li              9.75338000      4.23316000      2.74677000       3      0.08598700      0.02913078      0.01900509      -1       0       0      20
 Li              4.34487000      9.85771000      6.54489000       3      0.08682802      0.34682818      0.15554383       0      -1      -1      17
 Li              9.05784000      5.93553000      0.03617000       3      0.01710859      0.12505009     -0.03748777      -1      -1       0      21
 Li              0.35770000      3.78378000      9.03269000       3     -0.08511473      0.02572195      0.13825290       0       0      -1      17
 Li              3.06460000      5.36108000      7.32492000       3     -0.15634746     -0.30236090     -0.11817771       0      -1      -1      19
 Li              6.55352000      2.23770000     12.16880000       3     -0.35750572      0.12992568      0.04513532      -1       0      -1      20
 Li              8.93546000      1.89862000     10.09640000       3     -0.27466547     -0.01109886     -0.20043816      -1       0      -1      18
 Li              6.47419000      5.45222000     12.14844000       3     -0.08126185     -0.02570343      0.11036136      -1      -1      -1      17
 Li              4.98529000      4.11330000      5.33855000       3     -0.21472614     -0.20132225      0.24195545       0       0       0      16
 Li              4.73664000      6.88418000      1.72254000       3     -0.05411009     -0.12372723      0.16210286       0      -1       0      17
 Li              2.16224000      7.80483000     10.73260000       3      0.17366337      0.02698562      0.00309569       0      -1      -1      18
 Li              7.25719000      2.39388000      2.68610000       3     -0.04749532      0.16590508     -0.16434934      -1       0       0      19
 Li              9.83686000      7.15186000      9.07253000       3     -0.09957383     -0.04685065      0.05365994      -1      -1      -1      19
 Li              0.05414000      3.83195000      5.74080000       3     -0.13244826     -0.00642848     -0.12665184       0       0       0      19
 Li              9.37997000      1.99299000      0.53831000       3      0.13774014      0.00712595     -0.14588077      -1       0       0      18
 Li              7.42213000      1.44257000      5.49613000       3     -0.06426140     -0.01013682      0.11323733      -1       0       0      14
 Li              5.52092000      6.47186000      9.55056000       3     -0.13831650      0.17062850      0.04734134      -1      -1      -1      18
 Li              6.43456000      8.35356000      3.14827000       3      0.15142102      0.10651084     -0.28256297      -1      -1       0      18
 Li              7.06023000      0.12822000      9.55274000       3     -0.19142444      0.37144576     -0.24109257      -1       0      -1      20
 Li              6.18690000      2.81891000      7.70690000       3      0.08863777     -0.16603234     -0.07026130      -1       0      -1      18
 Li              8.85539000      8.89626000      0.62047000       3      0.06164041     -0.03255124     -0.31680643      -1      -1       0      19
 P               2.90538000      6.24549000      4.15871000      15     -0.06893339     -0.15657903     -0.13024608       0      -1       0      17
 P               2.92927000      4.70376000     10.90645000      15      0.08553846     -0.33332566      0.08873058       0       0      -1      16
 P               0.97142000      4.42730000     12.02251000      15     -0.11039973     -0.12839457     -0.41273385       0       0      -1      19
 P               2.03602000      7.24987000      6.03373000      15      0.30128710      0.04265530      0.22873844       0      -1       0      19
 P              10.22080000      6.35649000      5.59814000      15     -0.03839201      0.04557112     -0.15912777      -1      -1       0      17
 S               3.80559000      1.04780000      9.97835000      16     -0.07419806      0.16056053     -0.01372060       0       0      -1      17
 S               3.95686000      9.07229000      2.66744000      16     -0.01945743     -0.02884611      0.45093830       0      -1       0      20
 S               4.42855000      9.30847000     10.20858000      16     -0.13264530      0.03269309     -0.21907321       0      -1      -1      15
 S               2.02595000      9.33313000      5.86324000      16     -0.07075617     -0.26745326      0.05787530       0      -1       0      17
 S               8.94829000      7.55381000      6.76545000      16     -0.04266537     -0.10926211      0.04957093      -1      -1      -1      17
 S               0.27678000      2.04316000      7.33543000      16      0.04101883     -0.06972497      0.17867372       0       0      -1      17
 S               5.03323000      6.32209000      4.16774000      16     -0.05400698      0.18276595     -0.22818396       0      -1       0      15
 S               4.09919000      6.29566000     11.69976000      16     -0.11107423      0.10489878     -0.22828652       0      -1      -1      18
 S               1.75738000      4.02671000      1.69549000      16     -0.07134894      0.28368138      0.12543943       0       0       0      19
 S               1.84121000      5.67214000      9.32107000      16     -0.08866210     -0.05152935      0.08411311       0      -1      -1      21
 S               7.96353000      3.91739000      1.04640000      16     -0.08240618      0.11577721     -0.01045447      -1       0       0      20
 S               7.89030000      5.94689000     10.12991000      16      0.05914350      0.02579049      0.20289342      -1      -1      -1      22
 S               0.81933000      2.51741000     11.18421000      16      0.07124056      0.36853759     -0.29275719       0       0      -1      18
 S               9.71979000      6.71958000      3.57488000      16      0.11043418     -0.42959852     -0.10861433      -1      -1       0      19
 S               1.00743000      2.18697000      2.36303000      16      0.31474646     -0.02113169     -0.02705892       0       0       0      16
 S               8.01753000      0.41626000     11.71656000      16     -0.30056423      0.31067384      0.13547586      -1       0      -1      19
 S               8.54829000      1.28679000      7.63883000      16      0.03484116      0.00028082      0.35180697      -1       0      -1      18
 S               5.00603000      1.72631000      5.71903000      16      0.12795549      0.22348732      0.18751474       0       0       0      20
 S               7.03513000      7.39830000      1.07684000      16      0.27884485      0.13141589     -0.05842723      -1      -1       0      19
 S               8.21870000      4.09422000      9.12935000      16      0.10842330      0.31336604     -0.06446924      -1       0      -1      22
 S               4.76775000      1.96580000      1.71262000      16      0.13058569     -0.08249078      0.08729590       0       0       0      19
 S               5.49554000      2.21035000      9.87917000      16      0.05258529      0.20015247      0.09235457      -1       0      -1      22
 S               5.50967000      8.76876000      8.51631000      16      0.16231541     -0.03155929     -0.13707326      -1      -1      -1      20
 S               4.20584000      0.06543000      1.01110000      16      0.02377650     -0.09347509      0.22007217       0       0       0      21
 S               2.51825000      4.35657000      5.08894000      16     -0.00195349      0.02766083     -0.02898997       0       0       0      17
 Cl              5.34000000      5.13310000      7.53500000      17      0.14377594      0.00798435      0.06151349      -1      -1      -1      19
 Cl              8.13121000      3.59937000      4.63373000      17      0.13090780     -0.37724145     -0.12668127      -1       0       0      19
 Cl              0.69704000      9.23119000      9.42297000      17     -0.23620679     -0.20987865      0.04662913       0      -1      -1      18
 Cl              7.59751000      0.15005000      3.50652000      17     -0.07660076     -0.05181186     -0.11970487      -1       0       0      20
 Cl              0.67657000      7.81279000      0.36228000      17     -0.15766436     -0.22657518     -0.02588301       0      -1       0      19
 65