 65
 energy=-260.61721424015207 cutoff=4.00000000 nneightol=1.20000000 pbc="T T T" Lattice="10.25000000       0.00000000       0.00000000       0.00000000      10.25000000       0.00000000       0.00000000       0.00000000      12.35000000" Properties=species:S:1:pos:R:3:Z:I:1:force:R:3:map_shift:I:3:n_neighb:I:1
 Li              6.20030000      9.28200000     12.24954000       3      0.15902476     -0.31316196      0.27927965      -1      -1      -1      23
 Li              7.61230000      5.77519000      7.56311000       3     -0.03427364     -0.10615471     -0.30033955      -1      -1      -1      14
 Li              2.51672000      1.79265000      0.46496000       3     -0.22802332     -0.11845937     -0.03790176       0       0       0      16
 Li              1.45255000      7.74107000      2.56984000       3      0.21078311     -0.16954518      0.01172259       0      -1       0      18
 Li              3.09320000      2.24493000      3.93777000       3     -0.02631937      0.12115977      0.04126317       0       0       0      17
 Li              1.96757000      0.44835000      8.16852000       3      0.10360131     -0.23503560      0.06419749       0       0      -1      17
 Li              7.52926000      5.67911000      2.66657000       3      0.11832811      0.20509947     -0.01636284      -1      -1       0      14
 Li              5.31071000      0.59971000      3.71487000       3      0.08160041      0.11057214      0.12468877      -1       0       0      17
 Li             10.03432000      9.65550000      7.08202000       3      0.02555266      0.18453803      0.07765002      -1      -1      -1      13
 Li              9.75566000      4.23598000      2.74568000       3      0.01648604      0.13754106      0.16986959      -1       0       0      20
 Li              4.34871000      9.85652000      6.54389000       3      0.09465231      0.20679154      0.05772650       0      -1      -1      17
 Li              9.05638000      5.93555000      0.03322000       3     -0.10232401     -0.13616831      0.01757012      -1      -1       0      21
 Li              0.35707000      3.78223000      9.03363000       3     -0.16238780      0.08083197      0.14987412       0       0      -1      17
 Li              3.06248000      5.36410000      7.32583000       3     -0.25266127     -0.32082672     -0.02683469       0      -1      -1      19
 Li              6.55451000      2.23545000     12.16890000       3     -0.32118004      0.14454467      0.01059388      -1       0      -1      20
 Li              8.93380000      1.90097000     10.09791000       3     -0.19784806      0.01857604     -0.24171707      -1       0      -1      18
 Li              6.47471000      5.45135000     12.14666000       3      0.18520863     -0.07641372      0.14351199      -1      -1      -1      17
 Li              4.98417000      4.11340000      5.33879000       3     -0.24582827     -0.10936940      0.28864032       0       0       0      16
 Li              4.73548000      6.88272000      1.72296000       3      0.06254952     -0.05378387     -0.07623232       0      -1       0      17
 Li              2.16312000      7.80302000     10.73325000       3     -0.06919445      0.09299545     -0.05273343       0      -1      -1      18
 Li              7.25566000      2.39688000      2.68491000       3     -0.07220430      0.00347370      0.02016074      -1       0       0      19
 Li              9.83638000      7.15389000      9.07193000       3      0.08647783     -0.07448961     -0.04915367      -1      -1      -1      19
 Li              0.04953000      3.83201000      5.74072000       3      0.02536138      0.06508146     -0.10850887       0       0       0      19
 Li              9.37686000      1.99217000      0.54094000       3      0.21082198      0.13007418     -0.07745999      -1       0       0      18
 Li              7.42213000      1.44352000      5.49346000       3     -0.07040094      0.07965394      0.19190830      -1       0       0      14
 Li              5.52083000      6.47206000      9.54957000       3     -0.14898186      0.15659288      0.05227680      -1      -1      -1      18
 Li              6.43624000      8.35404000      3.14838000       3      0.16642120      0.09467170     -0.39558853      -1      -1       0      18
 Li              7.06283000      0.12517000      9.55060000       3     -0.04279448      0.10528051     -0.18011576      -1       0      -1      20
 Li              6.18752000      2.81950000      7.70693000       3     -0.02310614     -0.05173616     -0.34217198      -1       0      -1      18
 Li              8.85463000      8.89416000      0.61958000       3      0.00749156     -0.12763842     -0.21667064      -1      -1       0      19
 P               2.90523000      6.24528000      4.15840000      15     -0.07645782      0.06992947     -0.41381495       0      -1       0      17
 P               2.92928000      4.70318000     10.90718000      15     -0.13372599     -0.24281005      0.01255199       0       0      -1      16
 P               0.97141000      4.42774000     12.02190000      15     -0.13686227      0.05436775     -0.28443791       0       0      -1      19
 P               2.03683000      7.24987000      6.03482000      15      0.07821580     -0.59254011      0.36143406       0      -1       0      19
 P              10.22008000      6.35712000      5.59750000      15      0.05470002     -0.12338986     -0.12693268      -1      -1       0      17
 S               3.80542000      1.04789000      9.97860000      16      0.00813117      0.00015973      0.07133820       0       0      -1      17
 S               3.95717000      9.07225000      2.66719000      16      0.08385186     -0.12537263      0.00074481       0      -1       0      20
 S               4.42859000      9.30801000     10.20867000      16     -0.01744222     -0.04300779     -0.03372540       0      -1      -1      15
 S               2.02566000      9.33222000      5.86266000      16     -0.06913351      0.03933506      0.12531399       0      -1       0      17
 S               8.94771000      7.55349000      6.76621000      16      0.06797292      0.12896146     -0.10511097      -1      -1      -1      17
 S               0.27674000      2.04323000      7.33523000      16     -0.15011140     -0.00794960      0.20798759       0       0      -1      17
 S               5.03322000      6.32211000      4.16782000      16      0.05739781      0.08424785     -0.07799573       0      -1       0      15
 S               4.09906000      6.29534000     11.69974000      16     -0.03136884     -0.01823502     -0.12137721       0      -1      -1      18
 S               1.75772000      4.02659000      1.69580000      16      0.04259769      0.29448615     -0.11523635       0       0       0      19
 S               1.84168000      5.67239000      9.32097000      16     -0.08124880      0.02561437      0.06239010       0      -1      -1      21
 S               7.96366000      3.91675000      1.04639000      16     -0.00103552      0.18623023     -0.08603344      -1       0       0      20
 S               7.89080000      5.94728000     10.12986000      16     -0.11616324      0.18256878      0.19333630      -1      -1      -1      22
 S               0.81971000      2.51772000     11.18431000      16     -0.00206992      0.32606436     -0.02789576       0       0      -1      18
 S               9.71960000      6.71934000      3.57402000      16      0.00915176     -0.37943116     -0.01574572      -1      -1       0      19
 S               1.00736000      2.18690000      2.36337000      16      0.19113681      0.02691175      0.09324758       0       0       0      16
 S               8.01730000      0.41611000     11.71676000      16     -0.07571433      0.26803055      0.17860028      -1       0      -1      19
 S               8.54839000      1.28692000      7.63975000      16      0.04984026      0.11704256      0.40882584      -1       0      -1      18
 S               5.00613000      1.72601000      5.71951000      16      0.20572198      0.29297381      0.04247386       0       0       0      20
 S               7.03555000      7.39839000      1.07770000      16     -0.12698144      0.10020364      0.08553835      -1      -1       0      19
 S               8.21805000      4.09478000      9.12861000      16      0.17851048     -0.13434032     -0.13202730      -1       0      -1      22
 S               4.76780000      1.96551000      1.71249000      16      0.35145890      0.18168017      0.24264432       0       0       0      19
 S               5.49574000      2.21066000      9.87880000      16     -0.02668908      0.11431013     -0.03864660      -1       0      -1      22
 S               5.51016000      8.76839000      8.51719000      16      0.09138921      0.04457220     -0.29244180      -1      -1      -1      20
 S               4.20551000      0.06550000      1.01087000      16      0.02625286     -0.35908909      0.26831394       0       0       0      21
 S               2.51771000      4.35755000      5.08944000      16      0.08021595     -0.01240813     -0.12189917       0       0       0      17
 Cl              5.33978000      5.13341000      7.53462000      17      0.28261561     -0.03380738      0.11256815      -1      -1      -1      19
 Cl              8.13171000      3.59949000      4.63342000      17      0.00285571     -0.24081103     -0.07546718      -1       0       0      19
 Cl              0.69728000      9.23100000      9.42313000      17     -0.16729228     -0.05901128     -0.03913617       0      -1      -1      18
 Cl              7.59802000      0.14993000      3.50659000      17      0.01143425     -0.07053835      0.01063896      -1       0       0      20
 Cl              0.67654000      7.81322000      0.36187000      17     -0.21798723     -0.13964369      0.05083306       0      -1       0      19
 65
 energy=-260.61739525740529 cutoff=4.00000000 nneightol=1.20000000 pbc="T T T" Lattice="10.25000000       0.00000000       0.00000000       0.00000000      10.25000000       0.00000000       0.00000000       0.00000000      12.35000000" Properties=species:S:1:pos:R:3:Z:I:1:force:R:3:map_shift:I:3:n_neighb:I:1
 Li              6.20008000      9.28208000     12.24971000       3      0.16094482     -0.31259626      0.27928831      -1      -1      -1      23
 Li              7.61200000      5.77518000      7.56331000       3     -0.03167965     -0.10442562     -0.30112689      -1      -1      -1      14
 Li              2.51670000      1.79302000      0.46485000       3     -0.22660973     -0.11943874     -0.03718361       0       0       0      16
 Li              1.45284000      7.74107000      2.56988000       3      0.21008023     -0.16941233      0.01214231       0      -1       0      18
 Li              3.09319000      2.24493000      3.93741000       3     -0.02597428      0.12131412      0.04065811       0       0       0      17
 Li              1.96750000      0.44788000      8.16863000       3      0.10400859     -0.23308249      0.06412516       0       0      -1      17
 Li              7.52918000      5.67914000      2.66666000       3      0.11842586      0.20496921     -0.01621959      -1      -1       0      14
 Li              5.31092000      0.59986000      3.71480000       3      0.07993911      0.11016187      0.12508962      -1       0       0      17
 Li             10.03458000      9.65529000      7.08184000       3      0.02471774      0.18532127      0.07772099      -1      -1      -1      13
 Li              9.75541000      4.23566000      2.74580000       3      0.01674657      0.13791722      0.16980417      -1       0       0      20
 Li              4.34825000      9.85664000      6.54400000       3      0.09716434      0.20724886      0.05658954       0      -1      -1      17
 Li              9.05656000      5.93554000      0.03356000       3     -0.10343864     -0.13564101      0.01618484      -1      -1       0      21
 Li              0.35716000      3.78242000      9.03353000       3     -0.16184263      0.07966116      0.14999927       0       0      -1      17
 Li              3.06277000      5.36374000      7.32572000       3     -0.25440833     -0.31945508     -0.02575071       0      -1      -1      19
 Li              6.55437000      2.23571000     12.16889000       3     -0.31949399      0.14366857      0.01166898      -1       0      -1      20
 Li              8.93398000      1.90070000     10.09775000       3     -0.19807059      0.01864443     -0.24141872      -1       0      -1      18
 Li              6.47464000      5.45145000     12.14688000       3      0.18558171     -0.07677158      0.14264253      -1      -1      -1      17
 Li              4.98429000      4.11339000      5.33877000       3     -0.24602052     -0.11037754      0.28750107       0       0       0      16
 Li              4.73562000      6.88289000      1.72292000       3      0.06225702     -0.05399012     -0.07586003       0      -1       0      17
 Li              2.16301000      7.80323000     10.73317000       3     -0.06933624      0.09286954     -0.05282880       0      -1      -1      18
 Li              7.25581000      2.39651000      2.68508000       3     -0.07137259      0.00550842      0.01810905      -1       0       0      19
 Li              9.83644000      7.15366000      9.07201000       3      0.08578782     -0.07413195     -0.04986783      -1      -1      -1      19
 Li              0.05007000      3.83201000      5.74074000       3      0.02321371      0.06580413     -0.10813282       0       0       0      19
 Li              9.37726000      1.99226000      0.54063000       3      0.20665602      0.12885739     -0.07621322      -1       0       0      18
 Li              7.42213000      1.44341000      5.49379000       3     -0.07092334      0.08042998      0.19119125      -1       0       0      14
 Li              5.52084000      6.47203000      9.54968000       3     -0.14922536      0.15700813      0.05236555      -1      -1      -1      18
 Li              6.43605000      8.35398000      3.14836000       3      0.16711672      0.09431241     -0.39559399      -1      -1       0      18
 Li              7.06255000      0.12552000      9.55086000       3     -0.04346395      0.10433635     -0.18037575      -1       0      -1      20
 Li              6.18745000      2.81943000      7.70693000       3     -0.02247176     -0.05108022     -0.34307321      -1       0      -1      18
 Li              8.85473000      8.89441000      0.61968000       3      0.00660643     -0.12878932     -0.21677749      -1      -1       0      19
 P               2.90525000      6.24531000      4.15844000      15     -0.07613824      0.06881402     -0.41371535       0      -1       0      17
 P               2.92928000      4.70325000     10.90709000      15     -0.13336725     -0.24355020      0.01323311       0       0      -1      16
 P               0.97141000      4.42769000     12.02198000      15     -0.13657069      0.05557833     -0.28612930       0       0      -1      19
 P               2.03673000      7.24987000      6.03468000      15      0.07963704     -0.59375307      0.36332981       0      -1       0      19
 P              10.22017000      6.35704000      5.59758000      15      0.05364434     -0.12387884     -0.12742420      -1      -1       0      17
 S               3.80545000      1.04788000      9.97858000      16      0.00595182      0.00016874      0.07228987       0       0      -1      17
 S               3.95713000      9.07225000      2.66721000      16      0.08384690     -0.12449858      0.00027746       0      -1       0      20
 S               4.42858000      9.30806000     10.20867000      16     -0.01674452     -0.04354889     -0.03391283       0      -1      -1      15
 S               2.02569000      9.33233000      5.86273000      16     -0.07023948      0.03785378      0.12464458       0      -1       0      17
 S               8.94778000      7.55354000      6.76612000      16      0.06644587      0.12781584     -0.10382876      -1      -1      -1      17
 S               0.27674000      2.04323000      7.33525000      16     -0.14937326     -0.00897298      0.20867412       0       0      -1      17
 S               5.03322000      6.32210000      4.16781000      16      0.05710381      0.08443504     -0.07782327       0      -1       0      15
 S               4.09908000      6.29537000     11.69974000      16     -0.03142736     -0.01817660     -0.12134804       0      -1      -1      18
 S               1.75768000      4.02661000      1.69576000      16      0.04474856      0.29473579     -0.11347721       0       0       0      19
 S               1.84162000      5.67236000      9.32099000      16     -0.08072063      0.02663026      0.06044010       0      -1      -1      21
 S               7.96365000      3.91683000      1.04638000      16     -0.00073656      0.18432363     -0.08544730      -1       0       0      20
 S               7.89074000      5.94724000     10.12986000      16     -0.11575906      0.18266441      0.19419782      -1      -1      -1      22
 S               0.81966000      2.51768000     11.18430000      16     -0.00016388      0.32676216     -0.02895226       0       0      -1      18
 S               9.71962000      6.71937000      3.57411000      16      0.00893940     -0.37938062     -0.01751337      -1      -1       0      19
 S               1.00737000      2.18691000      2.36333000      16      0.19062651      0.02686811      0.09392474       0       0       0      16
 S               8.01733000      0.41612000     11.71673000      16     -0.07648498      0.26848240      0.17891079      -1       0      -1      19
 S               8.54837000      1.28691000      7.63965000      16      0.05070974      0.11632298      0.40944746      -1       0      -1      18
 S               5.00612000      1.72604000      5.71945000      16      0.20560967      0.29193336      0.04353258       0       0       0      20
 S               7.03550000      7.39837000      1.07760000      16     -0.12625027      0.10104433      0.08633220      -1      -1       0      19
 S               8.21813000      4.09472000      9.12869000      16      0.17873741     -0.13407568     -0.13360122      -1       0      -1      22
 S               4.76780000      1.96554000      1.71250000      16      0.35026556      0.18127139      0.24227410       0       0       0      19
 S               5.49571000      2.21062000      9.87884000      16     -0.02662629      0.11545264     -0.03929550      -1       0      -1      22
 S               5.51011000      8.76842000      8.51708000      16      0.09155882      0.04497638     -0.29214870      -1      -1      -1      20
 S               4.20555000      0.06549000      1.01090000      16      0.02564792     -0.35793055      0.26841955       0       0       0      21
 S               2.51776000      4.35743000      5.08938000      16      0.08015560     -0.01119347     -0.12229893       0       0       0      17
 Cl              5.33980000      5.13337000      7.53466000      17      0.28209895     -0.03447238      0.11264185      -1      -1      -1      19
 Cl              8.13165000      3.59947000      4.63345000      17      0.00360688     -0.24078114     -0.07418952      -1       0       0      19
 Cl              0.69725000      9.23103000      9.42311000      17     -0.16902755     -0.06016922     -0.03760833       0      -1      -1      18
 Cl              7.59796000      0.14994000      3.50658000      17      0.01336844     -0.07101173      0.01017007      -1       0       0      20
 Cl              0.67654000      7.81318000      0.36192000      17     -0.21798832     -0.13958044      0.05131581       0      -1       0      19
 65
 energy=-260.61813432067078 cutoff=4.00000000 nneightol=1.20000000 pbc="T T T" Lattice="10.25000000       0.00000000       0.00000000       0.00000000      10.25000000       0.00000000       0.00000000       0.00000000      12.35000000" Properties=species:S:1:pos:R:3:Z:I:1:force:R:3:map_shift:I:3:n_neighb:I:1
 Li              6.19868000      9.28275000     12.25095000       3      0.17328320     -0.30849362      0.27881002      -1      -1      -1      23
 Li              7.60994000      5.77536000      7.56484000       3     -0.01406834     -0.09289368     -0.30546265      -1      -1      -1      14
 Li              2.51679000      1.79586000      0.46404000       3     -0.21715433     -0.12624859     -0.03156126       0       0       0      16
 Li              1.45499000      7.74108000      2.57009000       3      0.20471195     -0.16866305      0.01523168       0      -1       0      18
 Li              3.09314000      2.24494000      3.93456000       3     -0.02361702      0.12260451      0.03610440       0       0       0      17
 Li              1.96695000      0.44438000      8.16939000       3      0.10714632     -0.21875502      0.06361937       0       0      -1      17
 Li              7.52856000      5.67943000      2.66739000       3      0.11912680      0.20431700     -0.01516074      -1      -1       0      14
 Li              5.31238000      0.60096000      3.71433000       3      0.06842349      0.10765945      0.12779142      -1       0       0      17
 Li             10.03638000      9.65385000      7.08039000       3      0.01905319      0.18995968      0.07816504      -1      -1      -1      13
 Li              9.75338000      4.23316000      2.74677000       3      0.01977312      0.14085661      0.16932440      -1       0       0      20
 Li              4.34487000      9.85771000      6.54489000       3      0.11524403      0.21015622      0.04856355       0      -1      -1      17
 Li              9.05784000      5.93553000      0.03617000       3     -0.11112205     -0.13177225      0.00637890      -1      -1       0      21
 Li              0.35770000      3.78378000      9.03269000       3     -0.15723125      0.07095092      0.15109586       0       0      -1      17
 Li              3.06460000      5.36108000      7.32492000       3     -0.26446275     -0.30986677     -0.01792146       0      -1      -1      19
 Li              6.55352000      2.23770000     12.16880000       3     -0.30860321      0.13701070      0.01948240      -1       0      -1      20
 Li              8.93546000      1.89862000     10.09640000       3     -0.19972092      0.01888183     -0.23852865      -1       0      -1      18
 Li              6.47419000      5.45222000     12.14844000       3      0.18821875     -0.07929370      0.13649544      -1      -1      -1      17
 Li              4.98529000      4.11330000      5.33855000       3     -0.24791461     -0.11719935      0.27940903       0       0       0      16
 Li              4.73664000      6.88418000      1.72254000       3      0.06007549     -0.05565037     -0.07322179       0      -1       0      17
 Li              2.16224000      7.80483000     10.73260000       3     -0.07050187      0.09175781     -0.05327387       0      -1      -1      18
 Li              7.25719000      2.39388000      2.68610000       3     -0.06659198      0.01880950      0.00478778      -1       0       0      19
 Li              9.83686000      7.15186000      9.07253000       3      0.08090416     -0.07103204     -0.05471525      -1      -1      -1      19
 Li              0.05414000      3.83195000      5.74080000       3      0.00698938      0.07077789     -0.10444488       0       0       0      19
 Li              9.37997000      1.99299000      0.53831000       3      0.17850012      0.12010998     -0.06731428      -1       0       0      18
 Li              7.42213000      1.44257000      5.49613000       3     -0.07441272      0.08618782      0.18589481      -1       0       0      14
 Li              5.52092000      6.47186000      9.55056000       3     -0.15088784      0.15965874      0.05261142      -1      -1      -1      18
 Li              6.43456000      8.35356000      3.14827000       3      0.17290000      0.09159540     -0.39553723      -1      -1       0      18
 Li              7.06023000      0.12822000      9.55274000       3     -0.04762922      0.09764899     -0.18163866      -1       0      -1      20
 Li              6.18690000      2.81891000      7.70690000       3     -0.01802542     -0.04559564     -0.34946454      -1       0      -1      18
 Li              8.85539000      8.89626000      0.62047000       3      0.00088968     -0.13729342     -0.21736144      -1      -1       0      19
 P               2.90538000      6.24549000      4.15871000      15     -0.07381586      0.06110083     -0.41292649       0      -1       0      17
 P               2.92927000      4.70376000     10.90645000      15     -0.13017652     -0.24846778      0.01740843       0       0      -1      16
 P               0.97142000      4.42730000     12.02251000      15     -0.13499485      0.06483955     -0.29784054       0       0      -1      19
 P               2.03602000      7.24987000      6.03373000      15      0.09009546     -0.60186843      0.37637946       0      -1       0      19
 P              10.22080000      6.35649000      5.59814000      15      0.04666828     -0.12821915     -0.13044367      -1      -1       0      17
 S               3.80559000      1.04780000      9.97835000      16     -0.00886973      0.00034143      0.07963426       0       0      -1      17
 S               3.95686000      9.07229000      2.66744000      16      0.08340148     -0.11779952     -0.00368429       0      -1       0      20
 S               4.42855000      9.30847000     10.20858000      16     -0.01256052     -0.04740752     -0.03447768       0      -1      -1      15
 S               2.02595000      9.33313000      5.86324000      16     -0.07829460      0.02731360      0.11982315       0      -1       0      17
 S               8.94829000      7.55381000      6.76545000      16      0.05545651      0.12064348     -0.09443312      -1      -1      -1      17
 S               0.27678000      2.04316000      7.33543000      16     -0.14369466     -0.01586313      0.21312203       0       0      -1      17
 S               5.03323000      6.32209000      4.16774000      16      0.05493765      0.08543286     -0.07619369       0      -1       0      15
 S               4.09919000      6.29566000     11.69976000      16     -0.03198272     -0.01783103     -0.12132749       0      -1      -1      18
 S               1.75738000      4.02671000      1.69549000      16      0.05958684      0.29656426     -0.10115595       0       0       0      19
 S               1.84121000      5.67214000      9.32107000      16     -0.07732541      0.03367131      0.04788446       0      -1      -1      21
 S               7.96353000      3.91739000      1.04640000      16      0.00144202      0.17185547     -0.08336283      -1       0       0      20
 S               7.89030000      5.94689000     10.12991000      16     -0.11257397      0.18327695      0.20024645      -1      -1      -1      22
 S               0.81933000      2.51741000     11.18421000      16      0.01359960      0.33101775     -0.03641325       0       0      -1      18
 S               9.71979000      6.71958000      3.57488000      16      0.00641824     -0.37839837     -0.03279456      -1      -1       0      19
 S               1.00743000      2.18697000      2.36303000      16      0.18704169      0.02659451      0.09844559       0       0       0      16
 S               8.01753000      0.41626000     11.71656000      16     -0.08179366      0.27215765      0.18042580      -1       0      -1      19
 S               8.54829000      1.28679000      7.63883000      16      0.05619295      0.11094740      0.41459700      -1       0      -1      18
 S               5.00603000      1.72631000      5.71903000      16      0.20479042      0.28436247      0.05148434       0       0       0      20
 S               7.03513000      7.39830000      1.07684000      16     -0.12050092      0.10651757      0.09291657      -1      -1       0      19
 S               8.21870000      4.09422000      9.12935000      16      0.18038706     -0.13165901     -0.14684145      -1       0      -1      22
 S               4.76775000      1.96580000      1.71262000      16      0.34201855      0.17761983      0.23945626       0       0       0      19
 S               5.49554000      2.21035000      9.87917000      16     -0.02646546      0.12349272     -0.04414095      -1       0      -1      22
 S               5.50967000      8.76876000      8.51631000      16      0.09344845      0.04720334     -0.29071570      -1      -1      -1      20
 S               4.20584000      0.06543000      1.01110000      16      0.02169926     -0.34968850      0.26934656       0       0       0      21
 S               2.51825000      4.35657000      5.08894000      16      0.07957760     -0.00276530     -0.12503352       0       0       0      17
 Cl              5.34000000      5.13310000      7.53500000      17      0.27750800     -0.03909376      0.11264954      -1      -1      -1      19
 Cl              8.13121000      3.59937000      4.63373000      17      0.00908180     -0.24035945     -0.06494884      -1       0       0      19
 Cl              0.69704000      9.23119000      9.42297000      17     -0.18247665     -0.06825376     -0.02660531       0      -1      -1      18
 Cl              7.59751000      0.15005000      3.50652000      17      0.02708562     -0.07456459      0.00674421      -1       0       0      20
 Cl              0.67657000      7.81279000      0.36228000      17     -0.21820803     -0.13889920      0.05461642       0      -1       0      19
 65