       N       E                     dE             d eps       ncg     rms          rms(c)
RMM:   1    -0.114215689239E+04   -0.11422E+04   -0.14707E+05   184   0.131E+03
RMM:   2     0.739532134473E+03    0.18817E+04   -0.23080E+04   184   0.254E+02
RMM:   3     0.243957890854E+03   -0.49557E+03   -0.73166E+03   184   0.135E+02
RMM:   4    -0.134339418369E+02   -0.25739E+03   -0.25961E+03   184   0.980E+01
RMM:   5    -0.125447212619E+03   -0.11201E+03   -0.10249E+03   184   0.635E+01
RMM:   6    -0.172064564616E+03   -0.46617E+02   -0.43392E+02   184   0.469E+01
RMM:   7    -0.194447608460E+03   -0.22383E+02   -0.21555E+02   184   0.358E+01
RMM:   8    -0.207619056695E+03   -0.13171E+02   -0.12421E+02   184   0.307E+01
RMM:   9    -0.242325028258E+03   -0.34706E+02   -0.34458E+02   668   0.268E+01
RMM:  10    -0.260199468019E+03   -0.17874E+02   -0.17644E+02   667   0.173E+01
RMM:  11    -0.264106516410E+03   -0.39070E+01   -0.40001E+01   646   0.104E+01
RMM:  12    -0.266254983687E+03   -0.21485E+01   -0.21474E+01   634   0.760E+00    0.380E+01
RMM:  13    -0.257164614236E+03    0.90904E+01   -0.23129E+01   496   0.756E+00    0.248E+01
RMM:  14    -0.256144206928E+03    0.10204E+01   -0.19472E+01   521   0.676E+00    0.680E+00
RMM:  15    -0.256259332384E+03   -0.11513E+00   -0.42374E+00   587   0.394E+00    0.167E+00
RMM:  16    -0.256382164784E+03   -0.12283E+00   -0.15985E+00   631   0.256E+00    0.133E+00
RMM:  17    -0.256473965261E+03   -0.91800E-01   -0.89141E-01   610   0.190E+00    0.495E-01
RMM:  18    -0.256533600001E+03   -0.59635E-01   -0.60171E-01   608   0.144E+00    0.198E-01
RMM:  19    -0.256572773345E+03   -0.39173E-01   -0.39928E-01   621   0.111E+00    0.213E-01
RMM:  20    -0.256591160415E+03   -0.18387E-01   -0.19032E-01   638   0.833E-01    0.290E-01
RMM:  21    -0.256604071871E+03   -0.12911E-01   -0.14302E-01   614   0.673E-01    0.494E-01
RMM:  22    -0.256610341678E+03   -0.62698E-02   -0.73470E-02   608   0.541E-01    0.356E-01
RMM:  23    -0.256614483712E+03   -0.41420E-02   -0.51691E-02   610   0.448E-01    0.120E-01
RMM:  24    -0.256615386584E+03   -0.90287E-03   -0.43058E-02   552   0.414E-01    0.508E-01
RMM:  25    -0.256618784875E+03   -0.33983E-02   -0.22845E-02   588   0.302E-01    0.210E-01
RMM:  26    -0.256620456889E+03   -0.16720E-02   -0.17352E-02   606   0.241E-01    0.685E-02
RMM:  27    -0.256621413070E+03   -0.95618E-03   -0.99388E-03   605   0.192E-01    0.947E-02
RMM:  28    -0.256622231444E+03   -0.81837E-03   -0.80396E-03   590   0.157E-01    0.901E-02
RMM:  29    -0.256622725176E+03   -0.49373E-03   -0.44004E-03   579   0.124E-01    0.851E-02
RMM:  30    -0.256623082404E+03   -0.35723E-03   -0.31582E-03   578   0.103E-01    0.700E-02
RMM:  31    -0.256623178077E+03   -0.95673E-04   -0.20881E-03   608   0.888E-02    0.885E-02
RMM:  32    -0.256623308542E+03   -0.13046E-03   -0.17266E-03   611   0.731E-02    0.870E-02
RMM:  33    -0.256623464354E+03   -0.15581E-03   -0.12355E-03   578   0.607E-02    0.678E-02
RMM:  34    -0.256623573709E+03   -0.10936E-03   -0.76458E-04   576   0.504E-02    0.510E-02
RMM:  35    -0.256623661498E+03   -0.87789E-04   -0.64822E-04   574   0.443E-02    0.329E-02
RMM:  36    -0.256623725947E+03   -0.64449E-04   -0.47559E-04   576   0.372E-02    0.206E-02
RMM:  37    -0.256623761428E+03   -0.35481E-04   -0.29661E-04   553   0.303E-02    0.164E-02
RMM:  38    -0.256623783188E+03   -0.21760E-04   -0.20145E-04   539   0.248E-02    0.146E-02
RMM:  39    -0.256623798944E+03   -0.15756E-04   -0.14871E-04   491   0.210E-02    0.130E-02
RMM:  40    -0.256623807690E+03   -0.87464E-05   -0.99978E-05   463   0.177E-02    0.129E-02
RMM:  41    -0.256623816742E+03   -0.90511E-05   -0.77865E-05   467   0.155E-02    0.111E-02
RMM:  42    -0.256623823708E+03   -0.69661E-05   -0.52499E-05   442   0.136E-02    0.918E-03
RMM:  43    -0.256623828734E+03   -0.50262E-05   -0.41846E-05   421   0.122E-02    0.775E-03
RMM:  44    -0.256623831676E+03   -0.29426E-05   -0.27206E-05   388   0.109E-02    0.709E-03
RMM:  45    -0.256623833674E+03   -0.19972E-05   -0.20464E-05   362   0.101E-02    0.678E-03
RMM:  46    -0.256623835099E+03   -0.14251E-05   -0.15282E-05   373   0.941E-03    0.656E-03
RMM:  47    -0.256623836181E+03   -0.10822E-05   -0.12194E-05   367   0.888E-03    0.639E-03
RMM:  48    -0.256623836870E+03   -0.68903E-06   -0.83415E-06   333   0.844E-03
   1 F= -.25662384E+03 E0= -.25662384E+03  d E =-.256624E+03
