 vasp.5.4.4.18Apr17-6-g9f103f2a35 (build Jan 22 2020 12:49:05) complex          
  
 executed on Bebop BDW IPS19.0.5  date 2022.09.29  10:03:30
 running on   64 total cores
 distrk:  each k-point on   64 cores,    1 groups
 distr:  one band on NCORES_PER_BAND=   8 cores,    8 groups


--------------------------------------------------------------------------------------------------------


 INCAR:
 POTCAR:    PAW_PBE Li_sv 10Sep2004               
 POTCAR:    PAW_PBE P 06Sep2000                   
 POTCAR:    PAW_PBE S 06Sep2000                   
 POTCAR:    PAW_PBE Cl 06Sep2000                  
 POTCAR:    PAW_PBE Li_sv 10Sep2004               
   VRHFIN =Li: 1s2s2p                                                           
   LEXCH  = PE                                                                  
   EATOM  =   202.7858 eV,   14.9043 Ry                                         
                                                                                
   TITEL  = PAW_PBE Li_sv 10Sep2004                                             
   LULTRA =        F    use ultrasoft PP ?                                      
   IUNSCR =        0    unscreen: 0-lin 1-nonlin 2-no                           
   RPACOR =    0.000    partial core radius                                     
   POMASS =    7.010; ZVAL   =    3.000    mass and valenz                      
   RCORE  =    1.700    outmost cutoff radius                                   
   RWIGS  =    2.050; RWIGS  =    1.085    wigner-seitz radius (au A)           
   ENMAX  =  499.034; ENMIN  =  374.276 eV                                      
   ICORE  =        2    local potential                                         
   LCOR   =        T    correct aug charges                                     
   LPAW   =        T    paw PP                                                  
   EAUG   =  628.945                                                            
   RMAX   =    1.732    core radius for proj-oper                               
   RAUG   =    1.300    factor for augmentation sphere                          
   RDEP   =    1.728    radius for radial grids                                 
   RDEPT  =    1.329    core radius for aug-charge                              
                                                                                
   Atomic configuration                                                         
    4 entries                                                                   
     n  l   j            E        occ.                                          
     1  0  0.50       -51.8549   2.0000                                         
     2  0  0.50        -2.8742   1.0000                                         
     2  1  0.50        -1.3606   0.0000                                         
     3  2  1.50        -1.3606   0.0000                                         
   Description                                                                  
     l       E           TYP  RCUT    TYP  RCUT                                 
     0    -51.8548813     23  1.400                                             
     0     -2.8742052     23  1.700                                             
     1     -1.3605826     23  1.400                                             
     2     -1.3605826     23  1.400                                             
  local pseudopotential read in
  atomic valenz-charges read in
  non local Contribution for L=           0  read in
    real space projection operators read in
  non local Contribution for L=           0  read in
    real space projection operators read in
  non local Contribution for L=           1  read in
    real space projection operators read in
    PAW grid and wavefunctions read in
 
   number of l-projection  operators is LMAX  =           3
   number of lm-projection operators is LMMAX =           5
 
 POTCAR:    PAW_PBE P 06Sep2000                   
   VRHFIN =P : s2p3                                                             
   LEXCH  = PE                                                                  
   EATOM  =   176.0430 eV,   12.9388 Ry                                         
                                                                                
   TITEL  = PAW_PBE P 06Sep2000                                                 
   LULTRA =        F    use ultrasoft PP ?                                      
   IUNSCR =        1    unscreen: 0-lin 1-nonlin 2-no                           
   RPACOR =    1.500    partial core radius                                     
   POMASS =   30.974; ZVAL   =    5.000    mass and valenz                      
   RCORE  =    1.900    outmost cutoff radius                                   
   RWIGS  =    2.330; RWIGS  =    1.233    wigner-seitz radius (au A)           
   ENMAX  =  255.040; ENMIN  =  191.280 eV                                      
   ICORE  =        2    local potential                                         
   LCOR   =        T    correct aug charges                                     
   LPAW   =        T    paw PP                                                  
   EAUG   =  342.924                                                            
   DEXC   =    0.000                                                            
   RMAX   =    1.935    core radius for proj-oper                               
   RAUG   =    1.300    factor for augmentation sphere                          
   RDEP   =    1.931    radius for radial grids                                 
   RDEPT  =    1.794    core radius for aug-charge                              
                                                                                
   Atomic configuration                                                         
    6 entries                                                                   
     n  l   j            E        occ.                                          
     1  0  0.50     -2084.0982   2.0000                                         
     2  0  0.50      -173.9859   2.0000                                         
     2  1  1.50      -124.4865   6.0000                                         
     3  0  0.50       -13.9692   2.0000                                         
     3  1  0.50        -5.5067   3.0000                                         
     3  2  1.50        -5.4423   0.0000                                         
   Description                                                                  
     l       E           TYP  RCUT    TYP  RCUT                                 
     0    -13.9691527     23  1.900                                             
     0    -11.7794650     23  1.900                                             
     1     -5.5066937     23  1.900                                             
     1     -0.2556953     23  1.900                                             
     2     -5.4423304     23  1.900                                             
  local pseudopotential read in
  partial core-charges read in
  partial kinetic energy density read in
  atomic valenz-charges read in
  non local Contribution for L=           0  read in
    real space projection operators read in
  non local Contribution for L=           0  read in
    real space projection operators read in
  non local Contribution for L=           1  read in
    real space projection operators read in
  non local Contribution for L=           1  read in
    real space projection operators read in
    PAW grid and wavefunctions read in
 
   number of l-projection  operators is LMAX  =           4
   number of lm-projection operators is LMMAX =           8
 
 POTCAR:    PAW_PBE S 06Sep2000                   
   VRHFIN =S : s2p4                                                             
   LEXCH  = PE                                                                  
   EATOM  =   276.8230 eV,   20.3459 Ry                                         
                                                                                
   TITEL  = PAW_PBE S 06Sep2000                                                 
   LULTRA =        F    use ultrasoft PP ?                                      
   IUNSCR =        1    unscreen: 0-lin 1-nonlin 2-no                           
   RPACOR =    1.500    partial core radius                                     
   POMASS =   32.066; ZVAL   =    6.000    mass and valenz                      
   RCORE  =    1.900    outmost cutoff radius                                   
   RWIGS  =    2.200; RWIGS  =    1.164    wigner-seitz radius (au A)           
   ENMAX  =  258.689; ENMIN  =  194.016 eV                                      
   ICORE  =        2    local potential                                         
   LCOR   =        T    correct aug charges                                     
   LPAW   =        T    paw PP                                                  
   EAUG   =  335.092                                                            
   DEXC   =    0.000                                                            
   RMAX   =    1.942    core radius for proj-oper                               
   RAUG   =    1.300    factor for augmentation sphere                          
   RDEP   =    1.954    radius for radial grids                                 
   RDEPT  =    1.744    core radius for aug-charge                              
                                                                                
   Atomic configuration                                                         
    6 entries                                                                   
     n  l   j            E        occ.                                          
     1  0  0.50     -2405.8406   2.0000                                         
     2  0  0.50      -211.7007   2.0000                                         
     2  1  1.50      -156.4958   6.0000                                         
     3  0  0.50       -17.2562   2.0000                                         
     3  1  0.50        -7.0085   4.0000                                         
     3  2  1.50        -6.8029   0.0000                                         
   Description                                                                  
     l       E           TYP  RCUT    TYP  RCUT                                 
     0    -17.2561641     23  1.900                                             
     0    -15.8743224     23  1.900                                             
     1     -7.0085400     23  1.900                                             
     1     -2.7779785     23  1.900                                             
     2     -6.8029130     23  1.900                                             
  local pseudopotential read in
  partial core-charges read in
  partial kinetic energy density read in
  atomic valenz-charges read in
  non local Contribution for L=           0  read in
    real space projection operators read in
  non local Contribution for L=           0  read in
    real space projection operators read in
  non local Contribution for L=           1  read in
    real space projection operators read in
  non local Contribution for L=           1  read in
    real space projection operators read in
    PAW grid and wavefunctions read in
 
   number of l-projection  operators is LMAX  =           4
   number of lm-projection operators is LMMAX =           8
 
 POTCAR:    PAW_PBE Cl 06Sep2000                  
   VRHFIN =Cl: s2p5                                                             
   LEXCH  = PE                                                                  
   EATOM  =   409.7259 eV,   30.1140 Ry                                         
                                                                                
   TITEL  = PAW_PBE Cl 06Sep2000                                                
   LULTRA =        F    use ultrasoft PP ?                                      
   IUNSCR =        1    unscreen: 0-lin 1-nonlin 2-no                           
   RPACOR =    1.500    partial core radius                                     
   POMASS =   35.453; ZVAL   =    7.000    mass and valenz                      
   RCORE  =    1.900    outmost cutoff radius                                   
   RWIGS  =    2.100; RWIGS  =    1.111    wigner-seitz radius (au A)           
   ENMAX  =  262.472; ENMIN  =  196.854 eV                                      
   ICORE  =        2    local potential                                         
   LCOR   =        T    correct aug charges                                     
   LPAW   =        T    paw PP                                                  
   EAUG   =  356.192                                                            
   DEXC   =    0.000                                                            
   RMAX   =    1.945    core radius for proj-oper                               
   RAUG   =    1.300    factor for augmentation sphere                          
   RDEP   =    2.020    radius for radial grids                                 
   RDEPT  =    1.678    core radius for aug-charge                              
                                                                                
   Atomic configuration                                                         
    6 entries                                                                   
     n  l   j            E        occ.                                          
     1  0  0.50     -2751.1850   2.0000                                         
     2  0  0.50      -252.6861   2.0000                                         
     2  1  1.50      -191.6157   6.0000                                         
     3  0  0.50       -20.6916   2.0000                                         
     3  1  0.50        -8.5949   5.0000                                         
     3  2  1.50        -8.1635   0.0000                                         
   Description                                                                  
     l       E           TYP  RCUT    TYP  RCUT                                 
     0    -20.6915656     23  1.900                                             
     0    -22.0521482     23  1.900                                             
     1     -8.5948577     23  1.900                                             
     1     -5.3847331     23  1.900                                             
     2     -8.1634956     23  1.900                                             
  local pseudopotential read in
  partial core-charges read in
  partial kinetic energy density read in
  atomic valenz-charges read in
  non local Contribution for L=           0  read in
    real space projection operators read in
  non local Contribution for L=           0  read in
    real space projection operators read in
  non local Contribution for L=           1  read in
    real space projection operators read in
  non local Contribution for L=           1  read in
    real space projection operators read in
    PAW grid and wavefunctions read in
 
   number of l-projection  operators is LMAX  =           4
   number of lm-projection operators is LMMAX =           8
 

 ----------------------------------------------------------------------------- 
|                                                                             |
|  ADVICE TO THIS USER RUNNING 'VASP/VAMP'   (HEAR YOUR MASTER'S VOICE ...):  |
|                                                                             |
|      You have a (more or less) 'large supercell' and for larger cells       |
|      it might be more efficient to use real space projection opertators     |
|      So try LREAL= Auto  in the INCAR   file.                               |
|      Mind:          For very  accurate calculation you might also keep the  |
|      reciprocal projection scheme          (i.e. LREAL=.FALSE.)             |
|                                                                             |
 ----------------------------------------------------------------------------- 

  PAW_PBE Li_sv 10Sep2004               :
 energy of atom  1       EATOM= -202.7858
 kinetic energy error for atom=    0.0143 (will be added to EATOM!!)
  PAW_PBE P 06Sep2000                   :
 energy of atom  2       EATOM= -176.0430
 kinetic energy error for atom=    0.0013 (will be added to EATOM!!)
  PAW_PBE S 06Sep2000                   :
 energy of atom  3       EATOM= -276.8230
 kinetic energy error for atom=    0.0020 (will be added to EATOM!!)
  PAW_PBE Cl 06Sep2000                  :
 energy of atom  4       EATOM= -409.7259
 kinetic energy error for atom=    0.0030 (will be added to EATOM!!)
 
 
 POSCAR: New POSCAR file                         
  positions in cartesian coordinates
  No initial velocities read in
 exchange correlation table for  LEXCH =        8
   RHO(1)=    0.500       N(1)  =     2000
   RHO(2)=  100.500       N(2)  =     4000
 


--------------------------------------------------------------------------------------------------------


 ion  position               nearest neighbor table
   1  0.639  0.891  0.009-  54 2.06  51 2.32
   2  0.726  0.573  0.611-  61 2.21  40 2.25  55 2.48  47 2.58
   3  0.221  0.172  0.026-  48 2.28  50 2.48  44 2.59  59 2.69
   4  0.161  0.702  0.204-  31 2.37  65 2.42  49 2.47
   5  0.287  0.196  0.328-   8 2.58  53 2.58  60 2.69
   6  0.206  0.053  0.662-  63 2.30  36 2.48  41 2.50  39 2.63
   7  0.739  0.564  0.216-  54 2.32  49 2.51  46 2.66
   8  0.508  0.080  0.302-  53 2.29  56 2.29  64 2.54  37 2.54   5 2.58
   9  0.984  0.929  0.588-  63 2.37  52 2.47  40 2.47  39 2.55
  10  0.930  0.390  0.233-  62 2.32  50 2.42  46 2.54
  11  0.438  0.972  0.526-  53 2.36  39 2.58  58 2.68
  12  0.893  0.591  0.014-  65 2.48  54 2.62  33 2.67
  13  0.006  0.359  0.736-  55 2.14  48 2.45  41 2.51
  14  0.299  0.521  0.600-  45 2.17  61 2.36  60 2.55  34 2.63
  15  0.600  0.239  0.988-  57 2.30  46 2.46  56 2.54
  16  0.841  0.193  0.832-  28 2.16  51 2.19  55 2.45  48 2.59
  17  0.620  0.542  0.991-  54 2.33  43 2.51  46 2.57  47 2.66
  18  0.447  0.404  0.436-  60 2.16  53 2.29  61 2.45  42 2.56
  19  0.482  0.652  0.153-  42 2.29  54 2.41  43 2.66
  20  0.208  0.739  0.864-  45 2.38  63 2.43  65 2.44  43 2.50
  21  0.688  0.246  0.221-  46 2.36  62 2.39  64 2.46
  22  0.975  0.696  0.725-  63 2.41  45 2.56  40 2.63
  23  0.026  0.368  0.450-  60 2.34  41 2.49  62 2.56  35 2.64
  24  0.906  0.216  0.040-  46 2.14  51 2.31  48 2.46  50 2.53
  25  0.714  0.131  0.451-  64 2.26  52 2.30  62 2.43  53 2.49
  26  0.547  0.636  0.776-  58 2.46  47 2.47  61 2.55  43 2.69
  27  0.625  0.833  0.244-  54 2.33  64 2.46  37 2.57
  28  0.708  0.047  0.771-  16 2.16  51 2.45  52 2.54  57 2.59
  29  0.600  0.278  0.609-  61 2.31  53 2.39  57 2.61
  30  0.897  0.875  0.025-  65 2.21  51 2.31
  31  0.297  0.607  0.338-  60 2.08  42 2.13  34 2.37   4 2.37
  32  0.280  0.476  0.886-  43 2.05  45 2.19  33 2.31
  33  0.095  0.431  0.984-  44 2.16  48 2.19  32 2.31  12 2.67
  34  0.196  0.714  0.487-  39 1.99  31 2.37  35 2.45  14 2.63
  35  0.979  0.621  0.456-  49 2.08  40 2.10  34 2.45  23 2.64
  36  0.368  0.108  0.804-  38 2.12  57 2.12   6 2.48
  37  0.382  0.890  0.223-  59 2.16   8 2.54  27 2.57
  38  0.438  0.916  0.829-  36 2.12  58 2.19
  39  0.200  0.908  0.486-  34 1.99   9 2.55  11 2.58   6 2.63
  40  0.848  0.738  0.543-  35 2.10   2 2.25   9 2.47  22 2.63
  41  0.026  0.192  0.589-  52 2.08  23 2.49   6 2.50  13 2.51
  42  0.504  0.615  0.335-  31 2.13  19 2.29  18 2.56
  43  0.393  0.620  0.952-  32 2.05  20 2.50  17 2.51  19 2.66  26 2.69
  44  0.186  0.384  0.137-  50 2.11  33 2.16   3 2.59
  45  0.183  0.559  0.744-  14 2.17  32 2.19  20 2.38  22 2.56
  46  0.771  0.370  0.076-  24 2.14  21 2.36  15 2.46  10 2.54  17 2.57   7 2.66
  47  0.770  0.559  0.816-  55 1.97  26 2.47   2 2.58  17 2.66
  48  0.075  0.244  0.900-  33 2.19   3 2.28  13 2.45  24 2.46  16 2.59
  49  0.951  0.649  0.291-  35 2.08   4 2.47   7 2.51
  50  0.080  0.216  0.185-  44 2.11  10 2.42   3 2.48  24 2.53
  51  0.785  0.053  0.958-  16 2.19  30 2.31  24 2.31   1 2.32  28 2.45
  52  0.838  0.119  0.606-  41 2.08  25 2.30   9 2.47  28 2.54
  53  0.478  0.186  0.464-   8 2.29  18 2.29  11 2.36  29 2.39  25 2.49   5 2.58
  54  0.692  0.723  0.088-   1 2.06   7 2.32  17 2.33  27 2.33  19 2.41  12 2.62
  55  0.801  0.397  0.733-  47 1.97  13 2.14  16 2.45   2 2.48
  56  0.450  0.181  0.144-  59 2.00   8 2.29  15 2.54
  57  0.537  0.227  0.810-  36 2.12  15 2.30  28 2.59  29 2.61
  58  0.557  0.852  0.692-  38 2.19  26 2.46  11 2.68
  59  0.414  0.006  0.079-  56 2.00  37 2.16   3 2.69
  60  0.240  0.434  0.412-  31 2.08  18 2.16  23 2.34  14 2.55   5 2.69
  61  0.527  0.492  0.609-   2 2.21  29 2.31  14 2.36  18 2.45  26 2.55
  62  0.794  0.335  0.377-  10 2.32  21 2.39  25 2.43  23 2.56
  63  0.089  0.899  0.757-   6 2.30   9 2.37  22 2.41  20 2.43
  64  0.751  0.030  0.291-  25 2.26  21 2.46  27 2.46   8 2.54
  65  0.074  0.752  0.027-  30 2.21   4 2.42  20 2.44  12 2.48
 

IMPORTANT INFORMATION: All symmetrisations will be switched off!
NOSYMM: (Re-)initialisation of all symmetry stuff for point group C_1.

 
 
 KPOINTS: Regular mesh centered at Gamma          

Automatic generation of k-mesh.
Space group operators:
 irot       det(A)        alpha          n_x          n_y          n_z        tau_x        tau_y        tau_z
    1     1.000000     0.000000     1.000000     0.000000     0.000000     0.000000     0.000000     0.000000
 
 Subroutine IBZKPT returns following result:
 ===========================================
 
 Found      1 irreducible k-points:
 
 Following reciprocal coordinates:
            Coordinates               Weight
  0.000000  0.000000  0.000000      1.000000
 
 Following cartesian coordinates:
            Coordinates               Weight
  0.000000  0.000000  0.000000      1.000000
 


--------------------------------------------------------------------------------------------------------




 Dimension of arrays:
   k-points           NKPTS =      1   k-points in BZ     NKDIM =      1   number of bands    NBANDS=    184
   number of dos      NEDOS =    301   number of ions     NIONS =     65
   non local maximal  LDIM  =      4   non local SUM 2l+1 LMDIM =      8
   total plane-waves  NPLWV = 219520
   max r-space proj   IRMAX =      1   max aug-charges    IRDMAX=   5529
   dimension x,y,z NGX =    56 NGY =   56 NGZ =   70
   dimension x,y,z NGXF=   112 NGYF=  112 NGZF=  140
   support grid    NGXF=   112 NGYF=  112 NGZF=  140
   ions per type =              30   5  25   5
   NGX,Y,Z   is equivalent  to a cutoff of   9.08,  9.08,  9.42 a.u.
   NGXF,Y,Z  is equivalent  to a cutoff of  18.17, 18.17, 18.85 a.u.

 SYSTEM =  LPSC                                    
 POSCAR =  New POSCAR file                         

 Startparameter for this run:
   NWRITE =      2    write-flag & timer
   PREC   = normal    normal or accurate (medium, high low for compatibility)
   ISTART =      0    job   : 0-new  1-cont  2-samecut
   ICHARG =      2    charge: 1-file 2-atom 10-const
   ISPIN  =      1    spin polarized calculation?
   LNONCOLLINEAR =      F non collinear calculations
   LSORBIT =      F    spin-orbit coupling
   INIWAV =      1    electr: 0-lowe 1-rand  2-diag
   LASPH  =      F    aspherical Exc in radial PAW
   METAGGA=      F    non-selfconsistent MetaGGA calc.

 Electronic Relaxation 1
   ENCUT  =  500.0 eV  36.75 Ry    6.06 a.u.  18.69 18.69 22.52*2*pi/ulx,y,z
   ENINI  =  500.0     initial cutoff
   ENAUG  =  628.9 eV  augmentation charge cutoff
   NELM   =    100;   NELMIN=  2; NELMDL=-12     # of ELM steps 
   EDIFF  = 0.1E-05   stopping-criterion for ELM
   LREAL  =      F    real-space projection
   NLSPLINE    = F    spline interpolate recip. space projectors
   LCOMPAT=      F    compatible to vasp.4.4
   GGA_COMPAT  = T    GGA compatible to vasp.4.4-vasp.4.6
   LMAXPAW     = -100 max onsite density
   LMAXMIX     =    2 max onsite mixed and CHGCAR
   VOSKOWN=      0    Vosko Wilk Nusair interpolation
   ROPT   =    0.00000   0.00000   0.00000   0.00000
 Ionic relaxation
   EDIFFG = -.1E-01   stopping-criterion for IOM
   NSW    =      1    number of steps for IOM
   NBLOCK =      1;   KBLOCK =      1    inner block; outer block 
   IBRION =      2    ionic relax: 0-MD 1-quasi-New 2-CG
   NFREE  =      1    steps in history (QN), initial steepest desc. (CG)
   ISIF   =      2    stress and relaxation
   IWAVPR =     11    prediction:  0-non 1-charg 2-wave 3-comb
   ISYM   =      0    0-nonsym 1-usesym 2-fastsym
   LCORR  =      T    Harris-Foulkes like correction to forces

   POTIM  = 0.5000    time-step for ionic-motion
   TEIN   =    0.0    initial temperature
   TEBEG  =    0.0;   TEEND  =   0.0 temperature during run
   SMASS  =  -3.00    Nose mass-parameter (am)
   estimated Nose-frequenzy (Omega)   =  0.10E-29 period in steps =****** mass=  -0.240E-26a.u.
   SCALEE = 1.0000    scale energy and forces
   NPACO  =    256;   APACO  = 16.0  distance and # of slots for P.C.
   PSTRESS=    0.0 pullay stress

  Mass of Ions in am
   POMASS =   7.01 30.97 32.07 35.45
  Ionic Valenz
   ZVAL   =   3.00  5.00  6.00  7.00
  Atomic Wigner-Seitz radii
   RWIGS  =  -1.00 -1.00 -1.00 -1.00
  virtual crystal weights 
   VCA    =   1.00  1.00  1.00  1.00
   NELECT =     300.0000    total number of electrons
   NUPDOWN=      -1.0000    fix difference up-down

 DOS related values:
   EMIN   =  10.00;   EMAX   =-10.00  energy-range for DOS
   EFERMI =   0.00
   ISMEAR =     0;   SIGMA  =   0.05  broadening in eV -4-tet -1-fermi 0-gaus

 Electronic relaxation 2 (details)
   IALGO  =     48    algorithm
   LDIAG  =      T    sub-space diagonalisation (order eigenvalues)
   LSUBROT=      F    optimize rotation matrix (better conditioning)
   TURBO    =      0    0=normal 1=particle mesh
   IRESTART =      0    0=no restart 2=restart with 2 vectors
   NREBOOT  =      0    no. of reboots
   NMIN     =      0    reboot dimension
   EREF     =   0.00    reference energy to select bands
   IMIX   =      4    mixing-type and parameters
     AMIX     =   0.40;   BMIX     =  1.00
     AMIX_MAG =   1.60;   BMIX_MAG =  1.00
     AMIN     =   0.10
     WC   =   100.;   INIMIX=   1;  MIXPRE=   1;  MAXMIX= -45

 Intra band minimization:
   WEIMIN = 0.0010     energy-eigenvalue tresh-hold
   EBREAK =  0.14E-08  absolut break condition
   DEPER  =   0.30     relativ break condition  

   TIME   =   0.40     timestep for ELM

  volume/ion in A,a.u.               =      19.96       134.71
  Fermi-wavevector in a.u.,A,eV,Ry     =   1.004794  1.898785 13.736591  1.009611
  Thomas-Fermi vector in A             =   2.137432
 
 Write flags
   LWAVE        =      F    write WAVECAR
   LDOWNSAMPLE  =      F    k-point downsampling of WAVECAR
   LCHARG       =      F    write CHGCAR
   LVTOT        =      F    write LOCPOT, total local potential
   LVHAR        =      F    write LOCPOT, Hartree potential only
   LELF         =      F    write electronic localiz. function (ELF)
   LORBIT       =     11    0 simple, 1 ext, 2 COOP (PROOUT), +10 PAW based schemes


 Dipole corrections
   LMONO  =      F    monopole corrections only (constant potential shift)
   LDIPOL =      F    correct potential (dipole corrections)
   IDIPOL =      0    1-x, 2-y, 3-z, 4-all directions 
   EPSILON=  1.0000000 bulk dielectric constant

 Exchange correlation treatment:
   GGA     =    --    GGA type
   LEXCH   =     8    internal setting for exchange type
   VOSKOWN=      0    Vosko Wilk Nusair interpolation
   LHFCALC =     F    Hartree Fock is set to
   LHFONE  =     F    Hartree Fock one center treatment
   AEXX    =    0.0000 exact exchange contribution

 Linear response parameters
   LEPSILON=     F    determine dielectric tensor
   LRPA    =     F    only Hartree local field effects (RPA)
   LNABLA  =     F    use nabla operator in PAW spheres
   LVEL    =     F    velocity operator in full k-point grid
   LINTERFAST=   F  fast interpolation
   KINTER  =     0    interpolate to denser k-point grid
   CSHIFT  =0.1000    complex shift for real part using Kramers Kronig
   OMEGAMAX=  -1.0    maximum frequency
   DEG_THRESHOLD= 0.2000000E-02 threshold for treating states as degnerate
   RTIME   =   -0.100 relaxation time in fs
  (WPLASMAI=    0.000 imaginary part of plasma frequency in eV, 0.658/RTIME)
   DFIELD  = 0.0000000 0.0000000 0.0000000 field for delta impulse in time
 
 Orbital magnetization related:
   ORBITALMAG=     F  switch on orbital magnetization
   LCHIMAG   =     F  perturbation theory with respect to B field
   DQ        =  0.001000  dq finite difference perturbation B field
   LLRAUG    =     F  two centre corrections for induced B field



--------------------------------------------------------------------------------------------------------


 conjugate gradient relaxation of ions
 charge density and potential will be updated during run
 non-spin polarized calculation
 RMM-DIIS sequential band-by-band
 perform sub-space diagonalisation
    before iterative eigenvector-optimisation
 modified Broyden-mixing scheme, WC =      100.0
 initial mixing is a Kerker type mixing with AMIX =  0.4000 and BMIX =      1.0000
 Hartree-type preconditioning will be used
 using additional bands           34
 reciprocal scheme for non local part
 use partial core corrections
 calculate Harris-corrections to forces 
   (improved forces if not selfconsistent)
 use gradient corrections 
 use of overlap-Matrix (Vanderbilt PP)
 Gauss-broadening in eV      SIGMA  =   0.05


--------------------------------------------------------------------------------------------------------


  energy-cutoff  :      500.00
  volume of cell :     1297.52
      direct lattice vectors                 reciprocal lattice vectors
    10.250000000  0.000000000  0.000000000     0.097560976  0.000000000  0.000000000
     0.000000000 10.250000000  0.000000000     0.000000000  0.097560976  0.000000000
     0.000000000  0.000000000 12.350000000     0.000000000  0.000000000  0.080971660

  length of vectors
    10.250000000 10.250000000 12.350000000     0.097560976  0.097560976  0.080971660


 
 k-points in units of 2pi/SCALE and weight: Regular mesh centered at Gamma          
   0.00000000  0.00000000  0.00000000       1.000
 
 k-points in reciprocal lattice and weights: Regular mesh centered at Gamma          
   0.00000000  0.00000000  0.00000000       1.000
 
 position of ions in fractional coordinates (direct lattice) 
   0.63914732  0.89129366  0.00869166
   0.72604976  0.57348293  0.61057247
   0.22104293  0.17220390  0.02570453
   0.16054634  0.70189171  0.20407935
   0.28744683  0.19643317  0.32784291
   0.20559610  0.05272322  0.66226235
   0.73905951  0.56402537  0.21632794
   0.50840585  0.08027727  0.30240972
   0.98411707  0.92893756  0.58824858
   0.92978927  0.38964683  0.23326154
   0.43787902  0.97172878  0.52640810
   0.89302537  0.59144976  0.01420883
   0.00636619  0.35925268  0.73613360
   0.29856976  0.52140878  0.59958704
   0.59976780  0.23901366  0.98769231
   0.84082244  0.19343805  0.83217004
   0.62000000  0.54175805  0.99106883
   0.44678244  0.40444390  0.43612065
   0.48191512  0.65248098  0.15293117
   0.20839610  0.73927902  0.86379757
   0.68817171  0.24621073  0.22142186
   0.97490244  0.69611707  0.72543158
   0.02590449  0.36772488  0.45020081
   0.90608976  0.21611024  0.03983190
   0.71419805  0.13061659  0.45073603
   0.54672780  0.63582439  0.77620972
   0.62543512  0.83284195  0.24400405
   0.70778634  0.04742068  0.77054089
   0.60007902  0.27831024  0.60927854
   0.89706341  0.87465854  0.02494842
   0.29653756  0.60729854  0.33825668
   0.28041659  0.47640683  0.88577328
   0.09477971  0.43108780  0.98425101
   0.19625073  0.71395220  0.48670202
   0.97931707  0.62123024  0.45617814
   0.36751512  0.10789463  0.80393522
   0.38227610  0.88986244  0.22254413
   0.43818049  0.91603024  0.82918219
   0.19952488  0.90830634  0.48624939
   0.84793756  0.73754927  0.54334899
   0.02612341  0.19177854  0.58904453
   0.50425561  0.61526732  0.33516194
   0.39336195  0.62022829  0.95204049
   0.18567610  0.38351902  0.13707368
   0.18315415  0.55935122  0.74354089
   0.77123122  0.36980000  0.07601304
   0.76971610  0.55876390  0.81620243
   0.07510156  0.24391902  0.89979757
   0.95066244  0.64856195  0.29106235
   0.07973532  0.21638829  0.18486964
   0.78543024  0.05300517  0.95821862
   0.83781561  0.11875707  0.60612551
   0.47818927  0.18579512  0.46366154
   0.69243707  0.72294537  0.08812389
   0.80126049  0.39707415  0.73331012
   0.44967512  0.18136000  0.14405101
   0.53679610  0.22710537  0.80962348
   0.55724585  0.85242146  0.69178543
   0.41365951  0.00627303  0.07861992
   0.23987024  0.43376000  0.41214575
   0.52696878  0.49153268  0.60860729
   0.79449463  0.33513073  0.37663968
   0.08869483  0.89876390  0.75721862
   0.75070732  0.03022712  0.29053846
   0.07395356  0.75173073  0.02675951
 
 position of ions in cartesian coordinates  (Angst):
   6.55126000  9.13576000  0.10734200
   7.44201000  5.87820000  7.54057000
   2.26569000  1.76509000  0.31745100
   1.64560000  7.19439000  2.52038000
   2.94633000  2.01344000  4.04886000
   2.10736000  0.54041300  8.17894000
   7.57536000  5.78126000  2.67165000
   5.21116000  0.82284200  3.73476000
  10.08720000  9.52161000  7.26487000
   9.53034000  3.99388000  2.88078000
   4.48826000  9.96022000  6.50114000
   9.15351000  6.06236000  0.17547900
   0.06525340  3.68234000  9.09125000
   3.06034000  5.34444000  7.40490000
   6.14762000  2.44989000 12.19800000
   8.61843000  1.98274000 10.27730000
   6.35500000  5.55302000 12.23970000
   4.57952000  4.14555000  5.38609000
   4.93963000  6.68793000  1.88870000
   2.13606000  7.57761000 10.66790000
   7.05376000  2.52366000  2.73456000
   9.99275000  7.13520000  8.95908000
   0.26552100  3.76918000  5.55998000
   9.28742000  2.21513000  0.49192400
   7.32053000  1.33882000  5.56659000
   5.60396000  6.51720000  9.58619000
   6.41071000  8.53663000  3.01345000
   7.25481000  0.48606200  9.51618000
   6.15081000  2.85268000  7.52459000
   9.19490000  8.96525000  0.30811300
   3.03951000  6.22481000  4.17747000
   2.87427000  4.88317000 10.93930000
   0.97149200  4.41865000 12.15550000
   2.01157000  7.31801000  6.01077000
  10.03800000  6.36761000  5.63380000
   3.76703000  1.10592000  9.92860000
   3.91833000  9.12109000  2.74842000
   4.49135000  9.38931000 10.24040000
   2.04513000  9.31014000  6.00518000
   8.69136000  7.55988000  6.71036000
   0.26776500  1.96573000  7.27470000
   5.16862000  6.30649000  4.13925000
   4.03196000  6.35734000 11.75770000
   1.90318000  3.93107000  1.69286000
   1.87733000  5.73335000  9.18273000
   7.90512000  3.79045000  0.93876100
   7.88959000  5.72733000 10.08010000
   0.76979100  2.50017000 11.11250000
   9.74429000  6.64776000  3.59462000
   0.81728700  2.21798000  2.28314000
   8.05066000  0.54330300 11.83400000
   8.58761000  1.21726000  7.48565000
   4.90144000  1.90440000  5.72622000
   7.09748000  7.41019000  1.08833000
   8.21292000  4.07001000  9.05638000
   4.60917000  1.85894000  1.77903000
   5.50216000  2.32783000  9.99885000
   5.71177000  8.73732000  8.54355000
   4.24001000  0.06429860  0.97095600
   2.45867000  4.44604000  5.09000000
   5.40143000  5.03821000  7.51630000
   8.14357000  3.43509000  4.65150000
   0.90912200  9.21233000  9.35165000
   7.69475000  0.30982800  3.58815000
   0.75802400  7.70524000  0.33048000
 


--------------------------------------------------------------------------------------------------------


 k-point  1 :   0.0000 0.0000 0.0000  plane waves:   33049

 maximum and minimum number of plane-waves per node :      4138     4129

 maximum number of plane-waves:     33049
 maximum index in each direction: 
   IXMAX=   18   IYMAX=   18   IZMAX=   22
   IXMIN=  -18   IYMIN=  -18   IZMIN=  -22


 parallel 3D FFT for wavefunctions:
    minimum data exchange during FFTs selected (reduces bandwidth)
 parallel 3D FFT for charge:
    minimum data exchange during FFTs selected (reduces bandwidth)


 total amount of memory used by VASP MPI-rank0    42204. kBytes
=======================================================================

   base      :      30000. kBytes
   nonl-proj :       5360. kBytes
   fftplans  :       1886. kBytes
   grid      :       3386. kBytes
   one-center:         27. kBytes
   wavefun   :       1545. kBytes
 
     INWAV:  cpu time    0.0001: real time    0.0001
 Broyden mixing: mesh for mixing (old mesh)
   NGX = 37   NGY = 37   NGZ = 45
  (NGX  =112   NGY  =112   NGZ  =140)
  gives a total of  61605 points

 initial charge density was supplied:
 charge density of overlapping atoms calculated
 number of electron     300.0000000 magnetization 
 keeping initial charge density in first step


--------------------------------------------------------------------------------------------------------


 Maximum index for augmentation-charges          355 (set IRDMAX)


--------------------------------------------------------------------------------------------------------


 First call to EWALD:  gamma=   0.163
 Maximum number of real-space cells 3x 3x 2
 Maximum number of reciprocal cells 3x 3x 3

    FEWALD:  cpu time    0.0087: real time    0.0098


--------------------------------------- Iteration      1(   1)  ---------------------------------------


    POTLOK:  cpu time    0.0858: real time    0.1154
    SETDIJ:  cpu time    0.0150: real time    0.0169
    EDDIAG:  cpu time    0.2519: real time    0.2649
  RMM-DIIS:  cpu time    0.3394: real time    0.3408
    ORTHCH:  cpu time    0.0213: real time    0.0213
       DOS:  cpu time    0.0016: real time    0.0021
    --------------------------------------------
      LOOP:  cpu time    0.7153: real time    0.7616

 eigenvalue-minimisations  :   184
 total energy-change (2. order) :-0.1142157E+04  (-0.1470700E+05)
 number of electron     300.0000000 magnetization 
 augmentation part      300.0000000 magnetization 

 Free energy of the ion-electron system (eV)
  ---------------------------------------------------
  alpha Z        PSCENC =       256.70245505
  Ewald energy   TEWEN  =     -9896.36095581
  -Hartree energ DENC   =     -3364.25357993
  -exchange      EXHF   =         0.00000000
  -V(xc)+E(xc)   XCENC  =       791.82153409
  PAW double counting   =     10155.13001117   -10497.29644279
  entropy T*S    EENTRO =        -0.00000000
  eigenvalues    EBANDS =     -4520.39528907
  atomic energy  EATOM  =     15932.49537490
  Solvation  Ediel_sol  =         0.00000000
  ---------------------------------------------------
  free energy    TOTEN  =     -1142.15689239 eV

  energy without entropy =    -1142.15689239  energy(sigma->0) =    -1142.15689239


--------------------------------------------------------------------------------------------------------




--------------------------------------- Iteration      1(   2)  ---------------------------------------


    EDDIAG:  cpu time    0.1867: real time    0.1865
  RMM-DIIS:  cpu time    0.3218: real time    0.3227
    ORTHCH:  cpu time    0.0208: real time    0.0208
       DOS:  cpu time    0.0011: real time    0.0010
    --------------------------------------------
      LOOP:  cpu time    0.5303: real time    0.5311

 eigenvalue-minimisations  :   184
 total energy-change (2. order) : 0.1881689E+04  (-0.2308031E+04)
 number of electron     300.0000000 magnetization 
 augmentation part      300.0000000 magnetization 

 Free energy of the ion-electron system (eV)
  ---------------------------------------------------
  alpha Z        PSCENC =       256.70245505
  Ewald energy   TEWEN  =     -9896.36095581
  -Hartree energ DENC   =     -3364.25357993
  -exchange      EXHF   =         0.00000000
  -V(xc)+E(xc)   XCENC  =       791.82153409
  PAW double counting   =     10155.13001117   -10497.29644279
  entropy T*S    EENTRO =        -0.01907593
  eigenvalues    EBANDS =     -2638.68718628
  atomic energy  EATOM  =     15932.49537490
  Solvation  Ediel_sol  =         0.00000000
  ---------------------------------------------------
  free energy    TOTEN  =       739.53213447 eV

  energy without entropy =      739.55121040  energy(sigma->0) =      739.54167244


--------------------------------------------------------------------------------------------------------




--------------------------------------- Iteration      1(   3)  ---------------------------------------


    EDDIAG:  cpu time    0.1837: real time    0.1837
  RMM-DIIS:  cpu time    0.3228: real time    0.3225
    ORTHCH:  cpu time    0.0206: real time    0.0206
       DOS:  cpu time    0.0010: real time    0.0010
    --------------------------------------------
      LOOP:  cpu time    0.5283: real time    0.5287

 eigenvalue-minimisations  :   184
 total energy-change (2. order) :-0.4955742E+03  (-0.7316555E+03)
 number of electron     300.0000000 magnetization 
 augmentation part      300.0000000 magnetization 

 Free energy of the ion-electron system (eV)
  ---------------------------------------------------
  alpha Z        PSCENC =       256.70245505
  Ewald energy   TEWEN  =     -9896.36095581
  -Hartree energ DENC   =     -3364.25357993
  -exchange      EXHF   =         0.00000000
  -V(xc)+E(xc)   XCENC  =       791.82153409
  PAW double counting   =     10155.13001117   -10497.29644279
  entropy T*S    EENTRO =        -0.01161857
  eigenvalues    EBANDS =     -3134.26888725
  atomic energy  EATOM  =     15932.49537490
  Solvation  Ediel_sol  =         0.00000000
  ---------------------------------------------------
  free energy    TOTEN  =       243.95789085 eV

  energy without entropy =      243.96950943  energy(sigma->0) =      243.96370014


--------------------------------------------------------------------------------------------------------




--------------------------------------- Iteration      1(   4)  ---------------------------------------


    EDDIAG:  cpu time    0.1823: real time    0.1837
  RMM-DIIS:  cpu time    0.3224: real time    0.3225
    ORTHCH:  cpu time    0.0206: real time    0.0206
       DOS:  cpu time    0.0010: real time    0.0010
    --------------------------------------------
      LOOP:  cpu time    0.5261: real time    0.5268

 eigenvalue-minimisations  :   184
 total energy-change (2. order) :-0.2573918E+03  (-0.2596116E+03)
 number of electron     300.0000000 magnetization 
 augmentation part      300.0000000 magnetization 

 Free energy of the ion-electron system (eV)
  ---------------------------------------------------
  alpha Z        PSCENC =       256.70245505
  Ewald energy   TEWEN  =     -9896.36095581
  -Hartree energ DENC   =     -3364.25357993
  -exchange      EXHF   =         0.00000000
  -V(xc)+E(xc)   XCENC  =       791.82153409
  PAW double counting   =     10155.13001117   -10497.29644279
  entropy T*S    EENTRO =        -0.04483628
  eigenvalues    EBANDS =     -3391.62750224
  atomic energy  EATOM  =     15932.49537490
  Solvation  Ediel_sol  =         0.00000000
  ---------------------------------------------------
  free energy    TOTEN  =       -13.43394184 eV

  energy without entropy =      -13.38910556  energy(sigma->0) =      -13.41152370


--------------------------------------------------------------------------------------------------------




--------------------------------------- Iteration      1(   5)  ---------------------------------------


    EDDIAG:  cpu time    0.1818: real time    0.1817
  RMM-DIIS:  cpu time    0.3217: real time    0.3224
    ORTHCH:  cpu time    0.0207: real time    0.0207
       DOS:  cpu time    0.0006: real time    0.0006
    --------------------------------------------
      LOOP:  cpu time    0.5248: real time    0.5253

 eigenvalue-minimisations  :   184
 total energy-change (2. order) :-0.1120133E+03  (-0.1024943E+03)
 number of electron     300.0000000 magnetization 
 augmentation part      300.0000000 magnetization 

 Free energy of the ion-electron system (eV)
  ---------------------------------------------------
  alpha Z        PSCENC =       256.70245505
  Ewald energy   TEWEN  =     -9896.36095581
  -Hartree energ DENC   =     -3364.25357993
  -exchange      EXHF   =         0.00000000
  -V(xc)+E(xc)   XCENC  =       791.82153409
  PAW double counting   =     10155.13001117   -10497.29644279
  entropy T*S    EENTRO =        -0.00000000
  eigenvalues    EBANDS =     -3503.68560930
  atomic energy  EATOM  =     15932.49537490
  Solvation  Ediel_sol  =         0.00000000
  ---------------------------------------------------
  free energy    TOTEN  =      -125.44721262 eV

  energy without entropy =     -125.44721262  energy(sigma->0) =     -125.44721262


--------------------------------------------------------------------------------------------------------




--------------------------------------- Iteration      1(   6)  ---------------------------------------


    EDDIAG:  cpu time    0.1814: real time    0.1815
  RMM-DIIS:  cpu time    0.3200: real time    0.3197
    ORTHCH:  cpu time    0.0207: real time    0.0207
       DOS:  cpu time    0.0007: real time    0.0007
    --------------------------------------------
      LOOP:  cpu time    0.5228: real time    0.5225

 eigenvalue-minimisations  :   184
 total energy-change (2. order) :-0.4661735E+02  (-0.4339170E+02)
 number of electron     300.0000000 magnetization 
 augmentation part      300.0000000 magnetization 

 Free energy of the ion-electron system (eV)
  ---------------------------------------------------
  alpha Z        PSCENC =       256.70245505
  Ewald energy   TEWEN  =     -9896.36095581
  -Hartree energ DENC   =     -3364.25357993
  -exchange      EXHF   =         0.00000000
  -V(xc)+E(xc)   XCENC  =       791.82153409
  PAW double counting   =     10155.13001117   -10497.29644279
  entropy T*S    EENTRO =        -0.00000000
  eigenvalues    EBANDS =     -3550.30296130
  atomic energy  EATOM  =     15932.49537490
  Solvation  Ediel_sol  =         0.00000000
  ---------------------------------------------------
  free energy    TOTEN  =      -172.06456462 eV

  energy without entropy =     -172.06456462  energy(sigma->0) =     -172.06456462


--------------------------------------------------------------------------------------------------------




--------------------------------------- Iteration      1(   7)  ---------------------------------------


    EDDIAG:  cpu time    0.1796: real time    0.1795
  RMM-DIIS:  cpu time    0.3192: real time    0.3199
    ORTHCH:  cpu time    0.0206: real time    0.0206
       DOS:  cpu time    0.0006: real time    0.0006
    --------------------------------------------
      LOOP:  cpu time    0.5200: real time    0.5207

 eigenvalue-minimisations  :   184
 total energy-change (2. order) :-0.2238304E+02  (-0.2155520E+02)
 number of electron     300.0000000 magnetization 
 augmentation part      300.0000000 magnetization 

 Free energy of the ion-electron system (eV)
  ---------------------------------------------------
  alpha Z        PSCENC =       256.70245505
  Ewald energy   TEWEN  =     -9896.36095581
  -Hartree energ DENC   =     -3364.25357993
  -exchange      EXHF   =         0.00000000
  -V(xc)+E(xc)   XCENC  =       791.82153409
  PAW double counting   =     10155.13001117   -10497.29644279
  entropy T*S    EENTRO =        -0.00000000
  eigenvalues    EBANDS =     -3572.68600514
  atomic energy  EATOM  =     15932.49537490
  Solvation  Ediel_sol  =         0.00000000
  ---------------------------------------------------
  free energy    TOTEN  =      -194.44760846 eV

  energy without entropy =     -194.44760846  energy(sigma->0) =     -194.44760846


--------------------------------------------------------------------------------------------------------




--------------------------------------- Iteration      1(   8)  ---------------------------------------


    EDDIAG:  cpu time    0.1799: real time    0.1801
  RMM-DIIS:  cpu time    0.3209: real time    0.3206
    ORTHCH:  cpu time    0.0206: real time    0.0206
       DOS:  cpu time    0.0007: real time    0.0007
    --------------------------------------------
      LOOP:  cpu time    0.5220: real time    0.5220

 eigenvalue-minimisations  :   184
 total energy-change (2. order) :-0.1317145E+02  (-0.1242130E+02)
 number of electron     300.0000000 magnetization 
 augmentation part      300.0000000 magnetization 

 Free energy of the ion-electron system (eV)
  ---------------------------------------------------
  alpha Z        PSCENC =       256.70245505
  Ewald energy   TEWEN  =     -9896.36095581
  -Hartree energ DENC   =     -3364.25357993
  -exchange      EXHF   =         0.00000000
  -V(xc)+E(xc)   XCENC  =       791.82153409
  PAW double counting   =     10155.13001117   -10497.29644279
  entropy T*S    EENTRO =        -0.00000000
  eigenvalues    EBANDS =     -3585.85745338
  atomic energy  EATOM  =     15932.49537490
  Solvation  Ediel_sol  =         0.00000000
  ---------------------------------------------------
  free energy    TOTEN  =      -207.61905669 eV

  energy without entropy =     -207.61905669  energy(sigma->0) =     -207.61905669


--------------------------------------------------------------------------------------------------------




--------------------------------------- Iteration      1(   9)  ---------------------------------------


    EDDIAG:  cpu time    0.1810: real time    0.1816
  RMM-DIIS:  cpu time    1.1421: real time    1.1414
    ORTHCH:  cpu time    0.0327: real time    0.0326
       DOS:  cpu time    0.0007: real time    0.0007
    --------------------------------------------
      LOOP:  cpu time    1.3566: real time    1.3564

 eigenvalue-minimisations  :   668
 total energy-change (2. order) :-0.3470597E+02  (-0.3445848E+02)
 number of electron     300.0000000 magnetization 
 augmentation part      300.0000000 magnetization 

 Free energy of the ion-electron system (eV)
  ---------------------------------------------------
  alpha Z        PSCENC =       256.70245505
  Ewald energy   TEWEN  =     -9896.36095581
  -Hartree energ DENC   =     -3364.25357993
  -exchange      EXHF   =         0.00000000
  -V(xc)+E(xc)   XCENC  =       791.82153409
  PAW double counting   =     10155.13001117   -10497.29644279
  entropy T*S    EENTRO =        -0.00000000
  eigenvalues    EBANDS =     -3620.56342494
  atomic energy  EATOM  =     15932.49537490
  Solvation  Ediel_sol  =         0.00000000
  ---------------------------------------------------
  free energy    TOTEN  =      -242.32502826 eV

  energy without entropy =     -242.32502826  energy(sigma->0) =     -242.32502826


--------------------------------------------------------------------------------------------------------




--------------------------------------- Iteration      1(  10)  ---------------------------------------


    EDDIAG:  cpu time    0.2064: real time    0.2063
  RMM-DIIS:  cpu time    1.2761: real time    1.2751
    ORTHCH:  cpu time    0.0259: real time    0.0259
       DOS:  cpu time    0.0008: real time    0.0008
    --------------------------------------------
      LOOP:  cpu time    1.5092: real time    1.5081

 eigenvalue-minimisations  :   667
 total energy-change (2. order) :-0.1787444E+02  (-0.1764351E+02)
 number of electron     300.0000000 magnetization 
 augmentation part      300.0000000 magnetization 

 Free energy of the ion-electron system (eV)
  ---------------------------------------------------
  alpha Z        PSCENC =       256.70245505
  Ewald energy   TEWEN  =     -9896.36095581
  -Hartree energ DENC   =     -3364.25357993
  -exchange      EXHF   =         0.00000000
  -V(xc)+E(xc)   XCENC  =       791.82153409
  PAW double counting   =     10155.13001117   -10497.29644279
  entropy T*S    EENTRO =        -0.00000000
  eigenvalues    EBANDS =     -3638.43786470
  atomic energy  EATOM  =     15932.49537490
  Solvation  Ediel_sol  =         0.00000000
  ---------------------------------------------------
  free energy    TOTEN  =      -260.19946802 eV

  energy without entropy =     -260.19946802  energy(sigma->0) =     -260.19946802


--------------------------------------------------------------------------------------------------------




--------------------------------------- Iteration      1(  11)  ---------------------------------------


    EDDIAG:  cpu time    0.1856: real time    0.1855
  RMM-DIIS:  cpu time    1.0946: real time    1.0938
    ORTHCH:  cpu time    0.0261: real time    0.0261
       DOS:  cpu time    0.0007: real time    0.0007
    --------------------------------------------
      LOOP:  cpu time    1.3070: real time    1.3060

 eigenvalue-minimisations  :   646
 total energy-change (2. order) :-0.3907048E+01  (-0.4000118E+01)
 number of electron     300.0000000 magnetization 
 augmentation part      300.0000000 magnetization 

 Free energy of the ion-electron system (eV)
  ---------------------------------------------------
  alpha Z        PSCENC =       256.70245505
  Ewald energy   TEWEN  =     -9896.36095581
  -Hartree energ DENC   =     -3364.25357993
  -exchange      EXHF   =         0.00000000
  -V(xc)+E(xc)   XCENC  =       791.82153409
  PAW double counting   =     10155.13001117   -10497.29644279
  entropy T*S    EENTRO =        -0.00000000
  eigenvalues    EBANDS =     -3642.34491309
  atomic energy  EATOM  =     15932.49537490
  Solvation  Ediel_sol  =         0.00000000
  ---------------------------------------------------
  free energy    TOTEN  =      -264.10651641 eV

  energy without entropy =     -264.10651641  energy(sigma->0) =     -264.10651641


--------------------------------------------------------------------------------------------------------




--------------------------------------- Iteration      1(  12)  ---------------------------------------


    EDDIAG:  cpu time    0.1872: real time    0.1871
  RMM-DIIS:  cpu time    1.0841: real time    1.0831
    ORTHCH:  cpu time    0.0269: real time    0.0269
       DOS:  cpu time    0.0008: real time    0.0008
    CHARGE:  cpu time    0.0460: real time    0.0488
    MIXING:  cpu time    0.0048: real time    0.0085
    --------------------------------------------
      LOOP:  cpu time    1.3499: real time    1.3553

 eigenvalue-minimisations  :   634
 total energy-change (2. order) :-0.2148467E+01  (-0.2147415E+01)
 number of electron     299.9999581 magnetization 
 augmentation part        2.0243094 magnetization 

 Broyden mixing:
  rms(total) = 0.38036E+01    rms(broyden)= 0.38020E+01
  rms(prec ) = 0.40662E+01
  weight for this iteration     100.00

 Free energy of the ion-electron system (eV)
  ---------------------------------------------------
  alpha Z        PSCENC =       256.70245505
  Ewald energy   TEWEN  =     -9896.36095581
  -Hartree energ DENC   =     -3364.25357993
  -exchange      EXHF   =         0.00000000
  -V(xc)+E(xc)   XCENC  =       791.82153409
  PAW double counting   =     10155.13001117   -10497.29644279
  entropy T*S    EENTRO =        -0.00000000
  eigenvalues    EBANDS =     -3644.49338037
  atomic energy  EATOM  =     15932.49537490
  Solvation  Ediel_sol  =         0.00000000
  ---------------------------------------------------
  free energy    TOTEN  =      -266.25498369 eV

  energy without entropy =     -266.25498369  energy(sigma->0) =     -266.25498369


--------------------------------------------------------------------------------------------------------




--------------------------------------- Iteration      1(  13)  ---------------------------------------


    POTLOK:  cpu time    0.0711: real time    0.0711
    SETDIJ:  cpu time    0.0146: real time    0.0146
    EDDIAG:  cpu time    0.1832: real time    0.1830
  RMM-DIIS:  cpu time    0.8397: real time    0.8391
    ORTHCH:  cpu time    0.0256: real time    0.0255
       DOS:  cpu time    0.0009: real time    0.0009
    CHARGE:  cpu time    0.0411: real time    0.0411
    MIXING:  cpu time    0.0036: real time    0.0042
    --------------------------------------------
      LOOP:  cpu time    1.1798: real time    1.1796

 eigenvalue-minimisations  :   496
 total energy-change (2. order) : 0.9090369E+01  (-0.2312870E+01)
 number of electron     299.9999587 magnetization 
 augmentation part        2.1694962 magnetization 

 Broyden mixing:
  rms(total) = 0.24771E+01    rms(broyden)= 0.24771E+01
  rms(prec ) = 0.25764E+01
  weight for this iteration     100.00

 eigenvalues of (default mixing * dielectric matrix)
  average eigenvalue GAMMA=   2.2756
  2.2756

 Free energy of the ion-electron system (eV)
  ---------------------------------------------------
  alpha Z        PSCENC =       256.70245505
  Ewald energy   TEWEN  =     -9896.36095581
  -Hartree energ DENC   =     -3446.61875564
  -exchange      EXHF   =         0.00000000
  -V(xc)+E(xc)   XCENC  =       797.90223216
  PAW double counting   =     13921.72363725   -14270.33829782
  entropy T*S    EENTRO =        -0.00000000
  eigenvalues    EBANDS =     -3552.67030432
  atomic energy  EATOM  =     15932.49537490
  Solvation  Ediel_sol  =         0.00000000
  ---------------------------------------------------
  free energy    TOTEN  =      -257.16461424 eV

  energy without entropy =     -257.16461424  energy(sigma->0) =     -257.16461424


--------------------------------------------------------------------------------------------------------




--------------------------------------- Iteration      1(  14)  ---------------------------------------


    POTLOK:  cpu time    0.0700: real time    0.0699
    SETDIJ:  cpu time    0.0148: real time    0.0148
    EDDIAG:  cpu time    0.1817: real time    0.1817
  RMM-DIIS:  cpu time    0.8785: real time    0.8778
    ORTHCH:  cpu time    0.0261: real time    0.0259
       DOS:  cpu time    0.0010: real time    0.0010
    CHARGE:  cpu time    0.0411: real time    0.0411
    MIXING:  cpu time    0.0034: real time    0.0034
    --------------------------------------------
      LOOP:  cpu time    1.2165: real time    1.2156

 eigenvalue-minimisations  :   521
 total energy-change (2. order) : 0.1020407E+01  (-0.1947231E+01)
 number of electron     299.9999594 magnetization 
 augmentation part        1.9952967 magnetization 

 Broyden mixing:
  rms(total) = 0.67955E+00    rms(broyden)= 0.67943E+00
  rms(prec ) = 0.72332E+00
  weight for this iteration     100.00

 eigenvalues of (default mixing * dielectric matrix)
  average eigenvalue GAMMA=   1.9342
  1.4469  2.4215

 Free energy of the ion-electron system (eV)
  ---------------------------------------------------
  alpha Z        PSCENC =       256.70245505
  Ewald energy   TEWEN  =     -9896.36095581
  -Hartree energ DENC   =     -3530.57588681
  -exchange      EXHF   =         0.00000000
  -V(xc)+E(xc)   XCENC  =       804.47960005
  PAW double counting   =     21277.94744805   -21634.37777982
  entropy T*S    EENTRO =        -0.00000000
  eigenvalues    EBANDS =     -3466.45446253
  atomic energy  EATOM  =     15932.49537490
  Solvation  Ediel_sol  =         0.00000000
  ---------------------------------------------------
  free energy    TOTEN  =      -256.14420693 eV

  energy without entropy =     -256.14420693  energy(sigma->0) =     -256.14420693


--------------------------------------------------------------------------------------------------------




--------------------------------------- Iteration      1(  15)  ---------------------------------------


    POTLOK:  cpu time    0.0699: real time    0.0698
    SETDIJ:  cpu time    0.0147: real time    0.0147
    EDDIAG:  cpu time    0.1861: real time    0.1859
  RMM-DIIS:  cpu time    1.0173: real time    1.0166
    ORTHCH:  cpu time    0.0256: real time    0.0256
       DOS:  cpu time    0.0010: real time    0.0010
    CHARGE:  cpu time    0.0408: real time    0.0408
    MIXING:  cpu time    0.0036: real time    0.0037
    --------------------------------------------
      LOOP:  cpu time    1.3591: real time    1.3582

 eigenvalue-minimisations  :   587
 total energy-change (2. order) :-0.1151255E+00  (-0.4237429E+00)
 number of electron     299.9999597 magnetization 
 augmentation part        1.6164250 magnetization 

 Broyden mixing:
  rms(total) = 0.16714E+00    rms(broyden)= 0.16665E+00
  rms(prec ) = 0.18667E+00
  weight for this iteration     100.00

 eigenvalues of (default mixing * dielectric matrix)
  average eigenvalue GAMMA=   1.6088
  2.3571  1.1894  1.2797

 Free energy of the ion-electron system (eV)
  ---------------------------------------------------
  alpha Z        PSCENC =       256.70245505
  Ewald energy   TEWEN  =     -9896.36095581
  -Hartree energ DENC   =     -3530.17226789
  -exchange      EXHF   =         0.00000000
  -V(xc)+E(xc)   XCENC  =       804.69758927
  PAW double counting   =     23145.18476890   -23503.70116206
  entropy T*S    EENTRO =        -0.00000000
  eigenvalues    EBANDS =     -3465.10513473
  atomic energy  EATOM  =     15932.49537490
  Solvation  Ediel_sol  =         0.00000000
  ---------------------------------------------------
  free energy    TOTEN  =      -256.25933238 eV

  energy without entropy =     -256.25933238  energy(sigma->0) =     -256.25933238


--------------------------------------------------------------------------------------------------------




--------------------------------------- Iteration      1(  16)  ---------------------------------------


    POTLOK:  cpu time    0.0695: real time    0.0694
    SETDIJ:  cpu time    0.0147: real time    0.0147
    EDDIAG:  cpu time    0.1830: real time    0.1828
  RMM-DIIS:  cpu time    1.0903: real time    1.0894
    ORTHCH:  cpu time    0.0362: real time    0.0361
       DOS:  cpu time    0.0009: real time    0.0009
    CHARGE:  cpu time    0.0440: real time    0.0440
    MIXING:  cpu time    0.0043: real time    0.0043
    --------------------------------------------
      LOOP:  cpu time    1.4430: real time    1.4417

 eigenvalue-minimisations  :   631
 total energy-change (2. order) :-0.1228324E+00  (-0.1598461E+00)
 number of electron     299.9999599 magnetization 
 augmentation part        1.3827583 magnetization 

 Broyden mixing:
  rms(total) = 0.13290E+00    rms(broyden)= 0.13249E+00
  rms(prec ) = 0.14459E+00
  weight for this iteration     100.00

 eigenvalues of (default mixing * dielectric matrix)
  average eigenvalue GAMMA=   1.7673
  1.1050  2.0694  1.9474  1.9474

 Free energy of the ion-electron system (eV)
  ---------------------------------------------------
  alpha Z        PSCENC =       256.70245505
  Ewald energy   TEWEN  =     -9896.36095581
  -Hartree energ DENC   =     -3531.91704546
  -exchange      EXHF   =         0.00000000
  -V(xc)+E(xc)   XCENC  =       804.89605794
  PAW double counting   =     23015.96382654   -23374.71159460
  entropy T*S    EENTRO =        -0.00000000
  eigenvalues    EBANDS =     -3463.45028334
  atomic energy  EATOM  =     15932.49537490
  Solvation  Ediel_sol  =         0.00000000
  ---------------------------------------------------
  free energy    TOTEN  =      -256.38216478 eV

  energy without entropy =     -256.38216478  energy(sigma->0) =     -256.38216478


--------------------------------------------------------------------------------------------------------




--------------------------------------- Iteration      1(  17)  ---------------------------------------


    POTLOK:  cpu time    0.0782: real time    0.0782
    SETDIJ:  cpu time    0.0155: real time    0.0154
    EDDIAG:  cpu time    0.1951: real time    0.1949
  RMM-DIIS:  cpu time    1.2049: real time    1.2085
    ORTHCH:  cpu time    0.0297: real time    0.0297
       DOS:  cpu time    0.0008: real time    0.0008
    CHARGE:  cpu time    0.0491: real time    0.0491
    MIXING:  cpu time    0.0045: real time    0.0045
    --------------------------------------------
      LOOP:  cpu time    1.5778: real time    1.5811

 eigenvalue-minimisations  :   610
 total energy-change (2. order) :-0.9180048E-01  (-0.8914129E-01)
 number of electron     299.9999600 magnetization 
 augmentation part        1.2627675 magnetization 

 Broyden mixing:
  rms(total) = 0.49490E-01    rms(broyden)= 0.49045E-01
  rms(prec ) = 0.55630E-01
  weight for this iteration     100.00

 eigenvalues of (default mixing * dielectric matrix)
  average eigenvalue GAMMA=   1.8019
  2.4853  2.4853  0.9443  1.7740  1.3210

 Free energy of the ion-electron system (eV)
  ---------------------------------------------------
  alpha Z        PSCENC =       256.70245505
  Ewald energy   TEWEN  =     -9896.36095581
  -Hartree energ DENC   =     -3537.49712059
  -exchange      EXHF   =         0.00000000
  -V(xc)+E(xc)   XCENC  =       805.43165712
  PAW double counting   =     22897.69383058   -23256.75599276
  entropy T*S    EENTRO =        -0.00000000
  eigenvalues    EBANDS =     -3458.18321375
  atomic energy  EATOM  =     15932.49537490
  Solvation  Ediel_sol  =         0.00000000
  ---------------------------------------------------
  free energy    TOTEN  =      -256.47396526 eV

  energy without entropy =     -256.47396526  energy(sigma->0) =     -256.47396526


--------------------------------------------------------------------------------------------------------




--------------------------------------- Iteration      1(  18)  ---------------------------------------


    POTLOK:  cpu time    0.0808: real time    0.0806
    SETDIJ:  cpu time    0.0157: real time    0.0157
    EDDIAG:  cpu time    0.1989: real time    0.1988
  RMM-DIIS:  cpu time    1.1265: real time    1.1256
    ORTHCH:  cpu time    0.0340: real time    0.0339
       DOS:  cpu time    0.0010: real time    0.0010
    CHARGE:  cpu time    0.0449: real time    0.0449
    MIXING:  cpu time    0.0047: real time    0.0047
    --------------------------------------------
      LOOP:  cpu time    1.5064: real time    1.5053

 eigenvalue-minimisations  :   608
 total energy-change (2. order) :-0.5963474E-01  (-0.6017056E-01)
 number of electron     299.9999602 magnetization 
 augmentation part        1.1765760 magnetization 

 Broyden mixing:
  rms(total) = 0.19783E-01    rms(broyden)= 0.19062E-01
  rms(prec ) = 0.22405E-01
  weight for this iteration     100.00

 eigenvalues of (default mixing * dielectric matrix)
  average eigenvalue GAMMA=   1.7012
  2.6947  2.6947  1.5407  1.5407  0.9977  0.7385

 Free energy of the ion-electron system (eV)
  ---------------------------------------------------
  alpha Z        PSCENC =       256.70245505
  Ewald energy   TEWEN  =     -9896.36095581
  -Hartree energ DENC   =     -3541.79035607
  -exchange      EXHF   =         0.00000000
  -V(xc)+E(xc)   XCENC  =       805.77640298
  PAW double counting   =     22886.70496832   -23245.55866023
  entropy T*S    EENTRO =        -0.00000000
  eigenvalues    EBANDS =     -3454.50282913
  atomic energy  EATOM  =     15932.49537490
  Solvation  Ediel_sol  =         0.00000000
  ---------------------------------------------------
  free energy    TOTEN  =      -256.53360000 eV

  energy without entropy =     -256.53360000  energy(sigma->0) =     -256.53360000


--------------------------------------------------------------------------------------------------------




--------------------------------------- Iteration      1(  19)  ---------------------------------------


    POTLOK:  cpu time    0.0698: real time    0.0697
    SETDIJ:  cpu time    0.0147: real time    0.0147
    EDDIAG:  cpu time    0.1860: real time    0.1859
  RMM-DIIS:  cpu time    1.1770: real time    1.1761
    ORTHCH:  cpu time    0.0284: real time    0.0284
       DOS:  cpu time    0.0009: real time    0.0009
    CHARGE:  cpu time    0.0406: real time    0.0405
    MIXING:  cpu time    0.0042: real time    0.0042
    --------------------------------------------
      LOOP:  cpu time    1.5216: real time    1.5205

 eigenvalue-minimisations  :   621
 total energy-change (2. order) :-0.3917334E-01  (-0.3992773E-01)
 number of electron     299.9999603 magnetization 
 augmentation part        1.0968348 magnetization 

 Broyden mixing:
  rms(total) = 0.21308E-01    rms(broyden)= 0.20806E-01
  rms(prec ) = 0.22597E-01
  weight for this iteration     100.00

 eigenvalues of (default mixing * dielectric matrix)
  average eigenvalue GAMMA=   1.4672
  2.6944  2.6944  1.5383  1.5383  0.9983  0.7538  0.0527

 Free energy of the ion-electron system (eV)
  ---------------------------------------------------
  alpha Z        PSCENC =       256.70245505
  Ewald energy   TEWEN  =     -9896.36095581
  -Hartree energ DENC   =     -3543.13307753
  -exchange      EXHF   =         0.00000000
  -V(xc)+E(xc)   XCENC  =       805.87612050
  PAW double counting   =     22872.80681976   -23231.30241609
  entropy T*S    EENTRO =        -0.00000000
  eigenvalues    EBANDS =     -3453.65709411
  atomic energy  EATOM  =     15932.49537490
  Solvation  Ediel_sol  =         0.00000000
  ---------------------------------------------------
  free energy    TOTEN  =      -256.57277335 eV

  energy without entropy =     -256.57277335  energy(sigma->0) =     -256.57277335


--------------------------------------------------------------------------------------------------------




--------------------------------------- Iteration      1(  20)  ---------------------------------------


    POTLOK:  cpu time    0.0694: real time    0.0694
    SETDIJ:  cpu time    0.0147: real time    0.0147
    EDDIAG:  cpu time    0.1817: real time    0.1816
  RMM-DIIS:  cpu time    1.0797: real time    1.0789
    ORTHCH:  cpu time    0.0295: real time    0.0294
       DOS:  cpu time    0.0009: real time    0.0009
    CHARGE:  cpu time    0.0407: real time    0.0407
    MIXING:  cpu time    0.0044: real time    0.0044
    --------------------------------------------
      LOOP:  cpu time    1.4211: real time    1.4201

 eigenvalue-minimisations  :   638
 total energy-change (2. order) :-0.1838707E-01  (-0.1903238E-01)
 number of electron     299.9999603 magnetization 
 augmentation part        1.0541840 magnetization 

 Broyden mixing:
  rms(total) = 0.28950E-01    rms(broyden)= 0.28793E-01
  rms(prec ) = 0.31371E-01
  weight for this iteration     100.00

 eigenvalues of (default mixing * dielectric matrix)
  average eigenvalue GAMMA=   1.4780
  2.5690  2.5690  1.9063  1.3882  1.0511  0.9646  0.8045  0.5714

 Free energy of the ion-electron system (eV)
  ---------------------------------------------------
  alpha Z        PSCENC =       256.70245505
  Ewald energy   TEWEN  =     -9896.36095581
  -Hartree energ DENC   =     -3543.27520103
  -exchange      EXHF   =         0.00000000
  -V(xc)+E(xc)   XCENC  =       805.88550812
  PAW double counting   =     22876.50424784   -23234.91925716
  entropy T*S    EENTRO =        -0.00000000
  eigenvalues    EBANDS =     -3453.62333232
  atomic energy  EATOM  =     15932.49537490
  Solvation  Ediel_sol  =         0.00000000
  ---------------------------------------------------
  free energy    TOTEN  =      -256.59116041 eV

  energy without entropy =     -256.59116041  energy(sigma->0) =     -256.59116041


--------------------------------------------------------------------------------------------------------




--------------------------------------- Iteration      1(  21)  ---------------------------------------


    POTLOK:  cpu time    0.0689: real time    0.0688
    SETDIJ:  cpu time    0.0150: real time    0.0150
    EDDIAG:  cpu time    0.1821: real time    0.1819
  RMM-DIIS:  cpu time    1.0411: real time    1.0403
    ORTHCH:  cpu time    0.0308: real time    0.0308
       DOS:  cpu time    0.0010: real time    0.0010
    CHARGE:  cpu time    0.0399: real time    0.0398
    MIXING:  cpu time    0.0046: real time    0.0046
    --------------------------------------------
      LOOP:  cpu time    1.3834: real time    1.3822

 eigenvalue-minimisations  :   614
 total energy-change (2. order) :-0.1291146E-01  (-0.1430240E-01)
 number of electron     299.9999604 magnetization 
 augmentation part        1.0204762 magnetization 

 Broyden mixing:
  rms(total) = 0.49422E-01    rms(broyden)= 0.49360E-01
  rms(prec ) = 0.54390E-01
  weight for this iteration     100.00

 eigenvalues of (default mixing * dielectric matrix)
  average eigenvalue GAMMA=   1.4804
  2.5422  2.5422  2.3655  0.9161  0.9161  1.2518  1.2518  0.9422  0.5961

 Free energy of the ion-electron system (eV)
  ---------------------------------------------------
  alpha Z        PSCENC =       256.70245505
  Ewald energy   TEWEN  =     -9896.36095581
  -Hartree energ DENC   =     -3543.65824495
  -exchange      EXHF   =         0.00000000
  -V(xc)+E(xc)   XCENC  =       805.89890608
  PAW double counting   =     22883.37784922   -23241.92246892
  entropy T*S    EENTRO =        -0.00000000
  eigenvalues    EBANDS =     -3453.13698743
  atomic energy  EATOM  =     15932.49537490
  Solvation  Ediel_sol  =         0.00000000
  ---------------------------------------------------
  free energy    TOTEN  =      -256.60407187 eV

  energy without entropy =     -256.60407187  energy(sigma->0) =     -256.60407187


--------------------------------------------------------------------------------------------------------




--------------------------------------- Iteration      1(  22)  ---------------------------------------


    POTLOK:  cpu time    0.0688: real time    0.0688
    SETDIJ:  cpu time    0.0147: real time    0.0147
    EDDIAG:  cpu time    0.1824: real time    0.1821
  RMM-DIIS:  cpu time    1.0292: real time    1.0284
    ORTHCH:  cpu time    0.0294: real time    0.0293
       DOS:  cpu time    0.0010: real time    0.0010
    CHARGE:  cpu time    0.0402: real time    0.0402
    MIXING:  cpu time    0.0048: real time    0.0049
    --------------------------------------------
      LOOP:  cpu time    1.3707: real time    1.3695

 eigenvalue-minimisations  :   608
 total energy-change (2. order) :-0.6269807E-02  (-0.7346983E-02)
 number of electron     299.9999604 magnetization 
 augmentation part        0.9893465 magnetization 

 Broyden mixing:
  rms(total) = 0.35611E-01    rms(broyden)= 0.35575E-01
  rms(prec ) = 0.38646E-01
  weight for this iteration     100.00

 eigenvalues of (default mixing * dielectric matrix)
  average eigenvalue GAMMA=   1.5413
  1.6686  1.6686  2.6437  2.4290  2.4290  1.2679  1.2679  0.9221  0.5579  0.5579

 Free energy of the ion-electron system (eV)
  ---------------------------------------------------
  alpha Z        PSCENC =       256.70245505
  Ewald energy   TEWEN  =     -9896.36095581
  -Hartree energ DENC   =     -3544.25424118
  -exchange      EXHF   =         0.00000000
  -V(xc)+E(xc)   XCENC  =       805.95166878
  PAW double counting   =     22876.47284793   -23234.38133162
  entropy T*S    EENTRO =        -0.00000000
  eigenvalues    EBANDS =     -3453.23615973
  atomic energy  EATOM  =     15932.49537490
  Solvation  Ediel_sol  =         0.00000000
  ---------------------------------------------------
  free energy    TOTEN  =      -256.61034168 eV

  energy without entropy =     -256.61034168  energy(sigma->0) =     -256.61034168


--------------------------------------------------------------------------------------------------------




--------------------------------------- Iteration      1(  23)  ---------------------------------------


    POTLOK:  cpu time    0.0691: real time    0.0690
    SETDIJ:  cpu time    0.0148: real time    0.0148
    EDDIAG:  cpu time    0.1946: real time    0.1945
  RMM-DIIS:  cpu time    1.0374: real time    1.0365
    ORTHCH:  cpu time    0.0277: real time    0.0277
       DOS:  cpu time    0.0008: real time    0.0008
    CHARGE:  cpu time    0.0407: real time    0.0407
    MIXING:  cpu time    0.0051: real time    0.0051
    --------------------------------------------
      LOOP:  cpu time    1.3902: real time    1.3892

 eigenvalue-minimisations  :   610
 total energy-change (2. order) :-0.4142034E-02  (-0.5169084E-02)
 number of electron     299.9999604 magnetization 
 augmentation part        0.9630833 magnetization 

 Broyden mixing:
  rms(total) = 0.11987E-01    rms(broyden)= 0.11936E-01
  rms(prec ) = 0.12696E-01
  weight for this iteration     100.00

 eigenvalues of (default mixing * dielectric matrix)
  average eigenvalue GAMMA=   1.6839
  3.8497  3.0754  2.4337  1.8790  1.8790  1.1409  1.1409  0.9718  0.7559  0.7559
  0.6409

 Free energy of the ion-electron system (eV)
  ---------------------------------------------------
  alpha Z        PSCENC =       256.70245505
  Ewald energy   TEWEN  =     -9896.36095581
  -Hartree energ DENC   =     -3544.70633251
  -exchange      EXHF   =         0.00000000
  -V(xc)+E(xc)   XCENC  =       806.01152215
  PAW double counting   =     22874.72807336   -23231.80033065
  entropy T*S    EENTRO =        -0.00000000
  eigenvalues    EBANDS =     -3453.68429021
  atomic energy  EATOM  =     15932.49537490
  Solvation  Ediel_sol  =         0.00000000
  ---------------------------------------------------
  free energy    TOTEN  =      -256.61448371 eV

  energy without entropy =     -256.61448371  energy(sigma->0) =     -256.61448371


--------------------------------------------------------------------------------------------------------




--------------------------------------- Iteration      1(  24)  ---------------------------------------


    POTLOK:  cpu time    0.0689: real time    0.0688
    SETDIJ:  cpu time    0.0149: real time    0.0149
    EDDIAG:  cpu time    0.1772: real time    0.1771
  RMM-DIIS:  cpu time    1.0808: real time    1.0800
    ORTHCH:  cpu time    0.0301: real time    0.0301
       DOS:  cpu time    0.0008: real time    0.0008
    CHARGE:  cpu time    0.0447: real time    0.0446
    MIXING:  cpu time    0.0059: real time    0.0059
    --------------------------------------------
      LOOP:  cpu time    1.4234: real time    1.4223

 eigenvalue-minimisations  :   552
 total energy-change (2. order) :-0.9028721E-03  (-0.4305814E-02)
 number of electron     299.9999604 magnetization 
 augmentation part        0.9431724 magnetization 

 Broyden mixing:
  rms(total) = 0.50811E-01    rms(broyden)= 0.50808E-01
  rms(prec ) = 0.57365E-01
  weight for this iteration     100.00

 eigenvalues of (default mixing * dielectric matrix)
  average eigenvalue GAMMA=   1.6132
  3.9457  2.5402  1.6028  1.6028  2.0050  1.6111  1.6111  1.2351  0.9293  0.8044
  0.7353  0.7353

 Free energy of the ion-electron system (eV)
  ---------------------------------------------------
  alpha Z        PSCENC =       256.70245505
  Ewald energy   TEWEN  =     -9896.36095581
  -Hartree energ DENC   =     -3545.95453345
  -exchange      EXHF   =         0.00000000
  -V(xc)+E(xc)   XCENC  =       806.14347790
  PAW double counting   =     22884.64862219   -23240.12451628
  entropy T*S    EENTRO =        -0.00000000
  eigenvalues    EBANDS =     -3454.16531108
  atomic energy  EATOM  =     15932.49537490
  Solvation  Ediel_sol  =         0.00000000
  ---------------------------------------------------
  free energy    TOTEN  =      -256.61538658 eV

  energy without entropy =     -256.61538658  energy(sigma->0) =     -256.61538658


--------------------------------------------------------------------------------------------------------




--------------------------------------- Iteration      1(  25)  ---------------------------------------


    POTLOK:  cpu time    0.0686: real time    0.0686
    SETDIJ:  cpu time    0.0146: real time    0.0146
    EDDIAG:  cpu time    0.1783: real time    0.1782
  RMM-DIIS:  cpu time    1.0010: real time    1.0002
    ORTHCH:  cpu time    0.0272: real time    0.0273
       DOS:  cpu time    0.0010: real time    0.0010
[...]
      direct lattice vectors                 reciprocal lattice vectors
    10.250000000  0.000000000  0.000000000     0.097560976  0.000000000  0.000000000
     0.000000000 10.250000000  0.000000000     0.000000000  0.097560976  0.000000000
     0.000000000  0.000000000 12.350000000     0.000000000  0.000000000  0.080971660

  length of vectors
    10.250000000 10.250000000 12.350000000     0.097560976  0.097560976  0.080971660


 FORCES acting on ions
    electron-ion (+dipol)            ewald-force                    non-local-force                 convergence-correction
 -----------------------------------------------------------------------------------------------
   0.552E+01 -.428E+01 0.166E+02   -.409E+01 0.463E+01 -.162E+02   -.216E+01 0.113E+01 -.131E+01   -.318E-03 -.991E-04 0.296E-05
   -.458E+01 -.257E+02 0.355E+02   0.528E+01 0.261E+02 -.352E+02   -.413E+00 -.701E+00 -.659E-01   0.141E-03 0.389E-03 0.276E-04
   -.105E+02 0.462E+02 0.350E+01   0.927E+01 -.458E+02 -.364E+01   0.167E+01 -.682E+00 0.448E+00   -.653E-04 0.334E-04 -.187E-04
   -.228E+01 -.366E+02 0.129E+01   0.167E+01 0.359E+02 -.371E+00   0.242E+00 0.110E+01 -.123E+01   0.276E-03 0.442E-04 0.102E-03
   0.306E+02 0.293E+02 -.143E+02   -.300E+02 -.285E+02 0.144E+02   -.849E+00 -.669E+00 -.224E+00   -.856E-04 -.898E-04 0.768E-04
   -.245E+02 -.240E+02 0.231E+02   0.229E+02 0.235E+02 -.230E+02   0.137E+01 0.519E+00 -.271E+00   0.390E-03 -.539E-04 -.259E-03
   0.131E+02 -.233E+01 -.325E+02   -.120E+02 0.327E+01 0.308E+02   -.920E+00 -.118E+01 0.176E+01   -.213E-03 -.565E-04 0.395E-04
   0.676E+01 0.215E+02 -.254E+02   -.679E+01 -.209E+02 0.260E+02   0.406E+00 -.118E+01 -.531E+00   -.601E-03 -.369E-03 -.108E-03
   0.194E+02 0.206E+01 0.335E+02   -.198E+02 -.216E+01 -.334E+02   0.225E+00 0.264E+00 -.237E+00   0.198E-03 -.124E-03 0.186E-03
   -.124E+02 -.724E+01 -.111E+02   0.114E+02 0.654E+01 0.106E+02   0.996E+00 0.814E+00 0.204E+00   0.179E-03 0.173E-03 0.345E-03
   -.103E+02 0.261E+02 0.750E+01   0.969E+01 -.247E+02 -.736E+01   0.457E+00 -.164E+01 0.698E-01   -.219E-03 -.191E-03 0.262E-03
   -.164E+01 -.159E+02 0.237E+01   0.108E+01 0.149E+02 -.256E+01   0.309E+00 0.539E+00 0.575E-01   0.475E-04 0.424E-03 0.625E-04
   -.382E+02 -.740E+01 0.241E+02   0.371E+02 0.690E+01 -.243E+02   0.244E+01 0.454E+00 -.762E-03   0.119E-03 0.290E-03 -.343E-03
   0.104E+01 0.686E+01 -.200E+01   -.186E+01 -.581E+01 0.242E+01   0.117E+01 -.965E+00 -.104E+01   -.123E-03 0.281E-04 0.798E-04
   0.162E+02 -.139E+02 -.100E+02   -.151E+02 0.134E+02 0.964E+01   -.580E+00 0.127E+00 0.802E+00   -.786E-03 0.160E-03 0.820E-04
   -.115E+02 0.119E+02 0.104E+02   0.117E+02 -.117E+02 -.861E+01   0.531E+00 0.722E+00 -.193E+01   0.124E-03 -.410E-03 -.251E-03
   0.203E+02 0.165E+02 0.433E+01   -.187E+02 -.156E+02 -.404E+01   -.115E+01 -.126E+01 -.619E+00   -.383E-03 0.131E-03 0.260E-03
   -.236E+02 0.622E+01 0.151E+02   0.231E+02 -.721E+01 -.148E+02   0.164E+01 0.107E+01 -.257E+00   -.456E-03 0.308E-03 -.171E-03
   0.241E+02 0.174E+02 0.752E+01   -.230E+02 -.163E+02 -.649E+01   -.154E+01 -.725E+00 -.136E+01   -.769E-04 -.155E-03 -.273E-04
   -.712E+01 -.299E+02 -.492E+01   0.687E+01 0.296E+02 0.441E+01   0.375E+00 0.742E+00 0.537E+00   0.225E-04 0.147E-03 -.151E-03
   0.183E+02 -.125E+01 0.163E+00   -.168E+02 0.171E+01 -.137E+01   -.134E+01 -.630E+00 0.110E+01   -.266E-03 0.148E-03 0.299E-03
   0.195E+02 -.467E+01 -.491E+01   -.195E+02 0.478E+01 0.444E+01   -.233E+00 -.222E+00 0.465E+00   0.947E-04 0.236E-03 0.538E-04
   -.398E+01 0.197E+02 -.535E+01   0.370E+01 -.195E+02 0.662E+01   -.343E+00 -.279E+00 -.916E+00   0.298E-03 -.373E-03 -.633E-04
   -.116E+02 0.409E+02 -.205E+02   0.103E+02 -.408E+02 0.200E+02   0.176E+01 -.779E+00 0.505E+00   0.569E-03 0.116E-05 0.199E-03
   -.172E+01 0.371E+02 -.140E+02   0.217E+01 -.368E+02 0.138E+02   -.369E+00 -.229E+00 -.108E+00   0.333E-03 -.500E-03 -.417E-04
   0.111E+02 -.122E+02 -.135E+01   -.977E+01 0.126E+02 0.109E+01   -.141E+01 -.511E+00 0.207E+00   -.179E-03 0.207E-03 0.299E-05
   -.209E+02 0.310E+00 -.458E+02   0.208E+02 -.208E+00 0.443E+02   0.189E+00 0.152E+00 0.182E+01   -.237E-03 0.718E-04 0.141E-03
   -.517E+01 0.401E+02 0.225E+02   0.459E+01 -.407E+02 -.217E+02   -.886E-01 -.285E+00 -.100E+01   -.692E-04 -.418E-03 -.199E-03
   0.135E+01 0.224E+02 0.436E+01   -.236E+01 -.223E+02 -.397E+01   0.116E+01 -.167E+00 0.192E+00   -.283E-03 -.530E-04 0.254E-03
   -.137E+02 -.160E+02 -.179E+02   0.130E+02 0.173E+02 0.170E+02   0.403E+00 -.963E+00 0.103E+01   0.357E-03 -.255E-04 -.170E-03
   -.423E+00 -.452E+02 0.352E+02   -.654E+01 0.497E+02 -.447E+02   0.667E+01 -.366E+01 0.919E+01   -.182E-03 0.331E-03 -.444E-03
   -.397E+02 0.508E+02 0.127E+02   0.450E+02 -.637E+02 -.136E+02   -.570E+01 0.113E+02 0.225E+00   0.609E-05 0.230E-03 0.197E-03
   0.206E+02 -.477E+02 0.342E+01   -.278E+02 0.558E+02 -.458E+01   0.701E+01 -.852E+01 0.241E+00   0.742E-03 -.361E-04 0.324E-03
   -.160E+02 -.124E+02 -.136E+02   0.190E+02 0.687E+01 0.213E+02   -.296E+01 0.376E+01 -.709E+01   0.162E-03 -.521E-04 0.307E-04
   0.823E+01 0.417E+01 -.168E+02   -.577E+01 -.154E+02 0.200E+02   -.148E+01 0.110E+02 -.309E+01   0.336E-03 -.185E-03 0.208E-03
   0.770E+02 -.364E+02 0.278E+02   -.860E+02 0.374E+02 -.277E+02   0.101E+02 -.138E+01 0.280E+00   -.487E-03 -.818E-03 -.409E-03
   0.739E+02 0.291E+02 -.670E+02   -.749E+02 -.315E+02 0.712E+02   0.128E+01 0.248E+01 -.483E+01   -.257E-03 -.595E-04 0.238E-04
   0.144E+02 0.550E+02 -.240E+02   -.161E+02 -.594E+02 0.328E+02   0.192E+01 0.436E+01 -.972E+01   -.969E-03 0.853E-04 -.459E-03
   -.526E+01 -.841E+02 0.617E+02   0.455E+01 0.879E+02 -.625E+02   0.889E+00 -.223E+01 0.375E+00   0.683E-03 0.811E-03 0.322E-03
   0.746E+02 -.758E+02 0.196E+02   -.770E+02 0.774E+02 -.188E+02   0.303E+01 -.112E+01 -.861E+00   0.537E-03 -.156E-03 0.780E-03
   -.858E+02 -.901E+01 0.524E+02   0.935E+02 0.119E+02 -.536E+02   -.714E+01 -.229E+01 0.121E+01   0.122E-02 0.198E-04 -.623E-03
   -.802E+02 -.251E+02 -.369E+02   0.836E+02 0.250E+02 0.373E+02   -.354E+01 -.250E+00 0.306E+00   -.564E-03 0.140E-03 -.887E-03
   -.367E+02 -.380E+02 -.438E+02   0.379E+02 0.409E+02 0.446E+02   -.667E+00 -.193E+01 -.258E+00   -.477E-03 0.344E-03 -.306E-03
   -.796E+02 -.505E+02 -.545E+02   0.865E+02 0.557E+02 0.562E+02   -.705E+01 -.529E+01 -.193E+01   0.385E-03 -.356E-03 -.276E-03
   0.162E+02 -.361E+01 0.577E+02   -.162E+02 0.543E+01 -.613E+02   -.631E+00 -.198E+01 0.477E+01   0.141E-03 0.799E-03 -.136E-04
   0.338E+02 -.208E+02 -.523E+01   -.329E+02 0.196E+02 0.439E+01   -.173E+01 0.282E+01 0.149E+01   -.200E-03 0.108E-02 0.792E-03
   0.226E-01 -.976E+02 -.441E+02   -.120E+01 0.105E+03 0.477E+02   0.882E+00 -.442E+01 -.222E+01   0.334E-03 0.157E-02 -.230E-03
   -.222E+02 0.835E+02 0.500E+02   0.223E+02 -.865E+02 -.510E+02   -.177E+00 0.404E+01 0.135E+01   0.169E-02 -.343E-03 0.842E-03
   0.237E+02 -.798E+02 0.393E+02   -.243E+02 0.817E+02 -.425E+02   0.330E+00 -.192E+01 0.262E+01   0.607E-03 0.781E-04 -.252E-03
   0.249E+02 0.144E+03 -.847E+02   -.278E+02 -.149E+03 0.867E+02   0.338E+01 0.505E+01 -.159E+01   0.144E-02 -.350E-03 0.257E-03
   -.241E+02 0.559E+02 -.208E+02   0.243E+02 -.554E+02 0.210E+02   -.544E+00 -.112E+01 -.212E+00   0.498E-03 -.115E-02 -.323E-03
   0.437E+02 0.616E+02 0.241E+02   -.510E+02 -.659E+02 -.244E+02   0.680E+01 0.390E+01 0.100E+01   0.194E-03 -.831E-03 -.373E-03
   0.399E+02 0.327E+02 -.239E+02   -.403E+02 -.321E+02 0.244E+02   0.299E+00 -.131E+01 -.455E+00   -.164E-02 -.134E-02 0.135E-03
   -.325E+02 -.181E+02 -.773E+01   0.322E+02 0.189E+02 0.772E+01   0.866E+00 -.177E+01 0.491E+00   -.234E-03 -.503E-03 0.726E-03
   -.642E+00 0.334E+02 0.463E+02   0.213E+01 -.397E+02 -.512E+02   -.212E+01 0.450E+01 0.374E+01   0.512E-03 0.545E-03 -.520E-03
   0.350E+01 -.949E+02 -.255E+02   -.352E+01 0.101E+03 0.274E+02   0.262E+00 -.406E+01 -.175E+01   -.128E-02 -.364E-03 0.149E-03
   0.418E+01 -.506E+02 0.143E+02   0.195E+00 0.546E+02 -.149E+02   -.495E+01 -.420E+01 -.479E+00   -.118E-02 -.535E-03 -.456E-03
   -.427E+02 0.195E+02 0.924E+02   0.462E+02 -.213E+02 -.958E+02   -.407E+01 0.261E+01 0.405E+01   -.756E-03 0.245E-03 -.160E-03
   0.477E+02 0.563E+02 0.547E+02   -.483E+02 -.598E+02 -.647E+02   0.175E+00 0.195E+01 0.103E+02   -.943E-03 0.406E-04 0.291E-03
   0.332E+02 0.766E+02 -.174E+02   -.333E+02 -.798E+02 0.195E+02   -.257E+00 0.257E+01 -.205E+01   -.371E-03 -.427E-03 0.700E-04
   0.267E+02 -.368E+02 0.138E+02   -.266E+02 0.366E+02 -.138E+02   -.923E+00 0.430E+00 -.483E-01   -.700E-03 0.489E-03 0.404E-03
   0.693E+01 -.221E+02 -.362E+02   -.742E+01 0.223E+02 0.369E+02   0.583E+00 0.237E+00 -.595E+00   0.806E-03 0.220E-03 -.624E-03
   0.216E+02 -.173E+02 -.416E+02   -.215E+02 0.178E+02 0.423E+02   -.410E+00 -.717E+00 -.405E+00   0.566E-03 -.103E-02 -.380E-03
   -.993E+02 0.852E+02 -.965E+01   0.101E+03 -.854E+02 0.957E+01   -.229E+01 -.269E+00 -.222E+00   -.582E-03 -.505E-03 0.367E-03
   -.146E+02 -.725E+02 -.358E+02   0.151E+02 0.727E+02 0.358E+02   -.309E+00 -.379E+00 0.485E-01   0.510E-03 0.347E-03 -.829E-04
 -----------------------------------------------------------------------------------------------
   -.147E+01 -.671E+01 -.200E+01   0.622E-13 -.711E-13 -.497E-13   0.147E+01 0.672E+01 0.200E+01   -.665E-03 -.180E-02 -.227E-03
 
 
 POSITION                                       TOTAL-FORCE (eV/Angst)
 -----------------------------------------------------------------------------------
      6.55126      9.13576      0.10734        -0.738652      1.485819     -0.858008
      7.44201      5.87820      7.54057         0.289949     -0.292254      0.225601
      2.26569      1.76509      0.31745         0.427890     -0.278643      0.307329
      1.64560      7.19439      2.52038        -0.369814      0.338291     -0.313008
      2.94633      2.01344      4.04886        -0.208836      0.111601     -0.034998
      2.10736      0.54041      8.17894        -0.239376     -0.030690     -0.146016
      7.57536      5.78126      2.67165         0.121221     -0.244419      0.067703
      5.21116      0.82284      3.73476         0.379590     -0.559508      0.054599
     10.08720      9.52161      7.26487        -0.146167      0.165835     -0.201925
      9.53034      3.99388      2.88078         0.011380      0.115374     -0.283768
      4.48826      9.96022      6.50114        -0.112165     -0.230547      0.209788
      9.15351      6.06236      0.17548        -0.251301     -0.382007     -0.135998
      0.06525      3.68234      9.09125         1.344370     -0.037131     -0.235923
      3.06034      5.34444      7.40490         0.353145      0.085039     -0.609910
      6.14762      2.44989     12.19800         0.530295     -0.334519      0.444348
      8.61843      1.98274     10.27730         0.730759      0.889741     -0.136825
      6.35500      5.55302     12.23970         0.440514     -0.351798     -0.328998
      4.57952      4.14555      5.38609         1.138121      0.075889      0.045095
      4.93963      6.68793      1.88870        -0.465038      0.392772     -0.339786
      2.13606      7.57761     10.66790         0.117575      0.463274      0.028989
      7.05376      2.52366      2.73456         0.176182     -0.176417     -0.109911
      9.99275      7.13520      8.95908        -0.266041     -0.109530     -0.009108
      0.26552      3.76918      5.55998        -0.616719     -0.058253      0.353753
      9.28742      2.21513      0.49192         0.493329     -0.714635     -0.045959
      7.32053      1.33882      5.56659         0.081462      0.145619     -0.300833
      5.60396      6.51720      9.58619        -0.079350     -0.070663     -0.051996
      6.41071      8.53663      3.01345         0.071634      0.253963      0.267345
      7.25481      0.48606      9.51618        -0.667633     -0.890447     -0.111772
      6.15081      2.85268      7.52459         0.148804     -0.007942      0.585035
      9.19490      8.96525      0.30811        -0.302795      0.291743      0.115248
      3.03951      6.22481      4.17747        -0.294856      0.788942     -0.292975
      2.87427      4.88317     10.93930        -0.401795     -1.651204     -0.650199
      0.97149      4.41865     12.15550        -0.252480     -0.356872     -0.917537
      2.01157      7.31801      6.01077         0.024236     -1.808993      0.518708
     10.03800      6.36761      5.63380         0.983334     -0.190996      0.140641
      3.76703      1.10592      9.92860         1.102520     -0.333389      0.406224
      3.91833      9.12109      2.74842         0.298903      0.108818     -0.654617
      4.49135      9.38931     10.24040         0.235460      0.026417     -0.902436
      2.04513      9.31014      6.00518         0.183478      1.495518     -0.458578
      8.69136      7.55988      6.71036         0.655025      0.489217     -0.052815
      0.26777      1.96573      7.27470         0.569759      0.589226     -0.043390
      5.16862      6.30649      4.13925        -0.200769     -0.349481      0.704581
      4.03196      6.35734     11.75770         0.572619      0.919866      0.490329
      1.90318      3.93107      1.69286        -0.188505     -0.124788     -0.184003
      1.87733      5.73335      9.18273        -0.562372     -0.161425      1.154697
      7.90512      3.79045      0.93876        -0.862063      1.559342      0.645860
      7.88959      5.72733     10.08010        -0.293279      2.486097      1.324369
      0.76979      2.50017     11.11250        -0.072822      1.068111      0.274780
      9.74429      6.64776      3.59462        -0.265415     -0.066397     -0.623864
      0.81729      2.21798      2.28314         0.476913      0.127653      0.424624
      8.05066      0.54330     11.83400        -0.404579     -0.696662     -0.069910
      8.58761      1.21726      7.48565        -0.460737     -0.376871      0.704137
      4.90144      1.90440      5.72622        -0.044008     -0.721048     -0.026731
      7.09748      7.41019      1.08833         0.536111     -0.988433      0.481111
      8.21292      4.07001      9.05638        -0.636727     -1.844768     -1.138036
      4.60917      1.85894      1.77903         0.243910      1.624805      0.147842
      5.50216      2.32783      9.99885        -0.577805     -0.183367     -1.089497
      5.71177      8.73732      8.54355        -0.583059      0.776619      0.656481
      4.24001      0.06430      0.97096        -0.387833     -1.577023      0.354646
      2.45867      4.44604      5.09000        -0.321858     -0.631882      0.101904
      5.40143      5.03821      7.51630        -0.767874      0.273849     -0.001899
      8.14357      3.43509      4.65150         0.091975      0.401067      0.088629
      0.90912      9.21233      9.35165        -0.346453     -0.172587      0.304294
      7.69475      0.30983      3.58815        -0.603183     -0.423705     -0.308937
      0.75802      7.70524      0.33048         0.161893     -0.121211      0.041473
 -----------------------------------------------------------------------------------
    total drift:                                0.007742      0.004996     -0.008142


--------------------------------------------------------------------------------------------------------



  FREE ENERGIE OF THE ION-ELECTRON SYSTEM (eV)
  ---------------------------------------------------
  free  energy   TOTEN  =      -256.62383687 eV

  energy  without entropy=     -256.62383687  energy(sigma->0) =     -256.62383687
 


--------------------------------------------------------------------------------------------------------


    POTLOK:  cpu time    0.0955: real time    0.0955


--------------------------------------------------------------------------------------------------------




--------------------------------------------------------------------------------------------------------


     LOOP+:  cpu time   59.2673: real time   59.2999
    4ORBIT:  cpu time    0.0000: real time    0.0000
 


 total charge     
 
# of ion       s       p       d       tot
------------------------------------------
    1        2.032   0.072   0.000   2.104
    2        2.022   0.059   0.000   2.081
    3        2.013   0.047   0.000   2.059
    4        2.016   0.045   0.000   2.062
    5        2.006   0.032   0.000   2.038
    6        2.015   0.046   0.000   2.061
    7        2.016   0.049   0.000   2.065
    8        2.028   0.067   0.000   2.095
    9        2.016   0.048   0.000   2.064
   10        2.017   0.051   0.000   2.068
   11        2.014   0.040   0.000   2.054
   12        2.011   0.040   0.000   2.050
   13        2.027   0.066   0.000   2.093
   14        2.024   0.060   0.000   2.084
   15        2.019   0.052   0.000   2.071
   16        2.028   0.064   0.000   2.091
   17        2.019   0.053   0.000   2.072
   18        2.027   0.068   0.000   2.095
   19        2.020   0.055   0.000   2.075
   20        2.014   0.046   0.000   2.059
   21        2.017   0.049   0.000   2.067
   22        2.010   0.038   0.000   2.048
   23        2.015   0.046   0.000   2.061
   24        2.031   0.075   0.000   2.105
   25        2.024   0.060   0.000   2.084
   26        2.014   0.044   0.000   2.059
   27        2.016   0.047   0.000   2.063
   28        2.018   0.049   0.000   2.067
   29        2.014   0.046   0.000   2.060
   30        2.020   0.050   0.000   2.070
   31        1.063   1.352   0.000   2.415
   32        1.100   1.317   0.000   2.417
   33        1.093   1.315   0.000   2.408
   34        1.070   1.376   0.000   2.446
   35        1.071   1.329   0.000   2.400
   36        1.362   2.251   0.000   3.613
   37        1.355   2.317   0.000   3.672
   38        1.373   2.226   0.000   3.599
   39        1.333   2.436   0.000   3.769
   40        1.338   2.420   0.000   3.758
   41        1.327   2.384   0.000   3.711
   42        1.336   2.402   0.000   3.738
   43        1.333   2.436   0.000   3.769
   44        1.361   2.301   0.000   3.663
   45        1.335   2.427   0.000   3.762
   46        1.312   2.472   0.000   3.784
   47        1.324   2.418   0.000   3.742
   48        1.342   2.401   0.000   3.743
   49        1.333   2.416   0.000   3.749
   50        1.349   2.348   0.000   3.697
   51        1.307   2.502   0.000   3.809
   52        1.325   2.398   0.000   3.722
   53        1.307   2.486   0.000   3.793
   54        1.308   2.529   0.000   3.837
   55        1.335   2.441   0.000   3.776
   56        1.338   2.421   0.000   3.759
   57        1.352   2.342   0.000   3.694
   58        1.349   2.314   0.000   3.663
   59        1.359   2.280   0.000   3.639
   60        1.329   2.470   0.000   3.799
   61        1.589   3.615   0.000   5.205
   62        1.591   3.580   0.000   5.172
   63        1.590   3.592   0.000   5.182
   64        1.591   3.570   0.000   5.162
   65        1.590   3.592   0.000   5.182
--------------------------------------------------
tot        107.328  86.044   0.000 193.372
 

 total amount of memory used by VASP MPI-rank0    42204. kBytes
=======================================================================

   base      :      30000. kBytes
   nonl-proj :       5360. kBytes
   fftplans  :       1886. kBytes
   grid      :       3386. kBytes
   one-center:         27. kBytes
   wavefun   :       1545. kBytes
 
  
  
 General timing and accounting informations for this job:
 ========================================================
  
                  Total CPU time used (sec):       67.871
                            User time (sec):       63.504
                          System time (sec):        4.367
                         Elapsed time (sec):       68.960
  
                   Maximum memory used (kb):      159088.
                   Average memory used (kb):           0.
  
                          Minor page faults:        53633
                          Major page faults:            0
                 Voluntary context switches:         2801
