<?xml version="1.0" encoding="ISO-8859-1"?>
<modeling>
 <generator>
  <i name="program" type="string">vasp </i>
  <i name="version" type="string">5.4.4.18Apr17-6-g9f103f2a35  </i>
  <i name="subversion" type="string">(build Jan 22 2020 12:49:05) complex            parallel </i>
  <i name="platform" type="string">Bebop BDW IPS19.0.5 gcc9.2.0 </i>
  <i name="date" type="string">2022 09 29 </i>
  <i name="time" type="string">10:03:30 </i>
 </generator>
 <incar>
  <i type="string" name="SYSTEM"> LPSC</i>
  <i type="string" name="PREC">normal</i>
  <i type="int" name="IALGO">    48</i>
  <i type="int" name="ISPIN">     1</i>
  <i type="int" name="NELM">   100</i>
  <i type="int" name="IBRION">     2</i>
  <i name="EDIFF">      0.00000100</i>
  <i name="EDIFFG">     -0.01000000</i>
  <i type="int" name="NSW">     1</i>
  <i type="int" name="ISIF">     2</i>
  <i type="int" name="ISYM">     0</i>
  <i name="ENCUT">    500.00000000</i>
  <i type="int" name="ISMEAR">     0</i>
  <i name="SIGMA">      0.05000000</i>
  <i type="logical" name="LWAVE"> F  </i>
  <i type="logical" name="LCHARG"> F  </i>
  <i type="int" name="LORBIT">    11</i>
  <v type="int" name="KPOINT_BSE">    -1     0     0     0</v>
  <i type="int" name="NELM">   100</i>
 </incar>
 <structure name="primitive_cell" >
  <crystal>
   <varray name="basis" >
    <v>      10.25000000       0.00000000       0.00000000 </v>
    <v>       0.00000000      10.25000000       0.00000000 </v>
    <v>       0.00000000       0.00000000      12.35000000 </v>
   </varray>
   <i name="volume">   1297.52187500 </i>
   <varray name="rec_basis" >
    <v>       0.09756098       0.00000000       0.00000000 </v>
    <v>       0.00000000       0.09756098       0.00000000 </v>
    <v>       0.00000000       0.00000000       0.08097166 </v>
   </varray>
  </crystal>
  <varray name="positions" >
   <v>      -0.36085268      -0.10870634       0.00869166 </v>
   <v>      -0.30756293      -0.27705463       0.08812389 </v>
   <v>      -0.21456976       0.05300517      -0.04178138 </v>
   <v>      -0.10293659      -0.12534146       0.02494842 </v>
   <v>       0.41365951       0.00627303       0.07861992 </v>
   <v>      -0.37456488      -0.16715805       0.24400405 </v>
   <v>       0.43818049      -0.08396976      -0.17081781 </v>
   <v>      -0.29221366       0.04742068      -0.22945911 </v>
   <v>       0.48191512      -0.34751902       0.15293117 </v>
   <v>      -0.38000000      -0.45824195      -0.00893117 </v>
   <v>      -0.40023220       0.23901366      -0.01230769 </v>
   <v>       0.38227610      -0.11013756       0.22254413 </v>
   <v>       0.39336195      -0.37977171      -0.04795951 </v>
   <v>       0.44967512       0.18136000       0.14405101 </v>
   <v>      -0.24929268       0.03022712       0.29053846 </v>
   <v>      -0.45327220      -0.36417561      -0.22379028 </v>
   <v>      -0.44275415      -0.14757854      -0.30821457 </v>
   <v>      -0.10697463      -0.40855024       0.01420883 </v>
   <v>      -0.15917756       0.19343805      -0.16782996 </v>
   <v>      -0.49159415       0.08027727       0.30240972 </v>
   <v>      -0.09391024       0.21611024       0.03983190 </v>
   <v>      -0.26094049      -0.43597463       0.21632794 </v>
   <v>      -0.46320390       0.22710537      -0.19037652 </v>
   <v>      -0.23028390      -0.44123610      -0.18379757 </v>
   <v>       0.36751512       0.10789463      -0.19606478 </v>
   <v>      -0.31182829       0.24621073       0.22142186 </v>
   <v>       0.07395356      -0.24826927       0.02675951 </v>
   <v>       0.20839610      -0.26072098      -0.13620243 </v>
   <v>      -0.49574439      -0.38473268       0.33516194 </v>
   <v>      -0.22876878       0.36980000       0.07601304 </v>
   <v>       0.22104293       0.17220390       0.02570453 </v>
   <v>      -0.02509756      -0.30388293      -0.27456842 </v>
   <v>      -0.04933756      -0.35143805       0.29106235 </v>
   <v>       0.08869483      -0.10123610      -0.24278138 </v>
   <v>       0.16054634      -0.29810829       0.20407935 </v>
   <v>       0.28041659       0.47640683      -0.11422672 </v>
   <v>      -0.16218439       0.11875707      -0.39387449 </v>
   <v>       0.07510156       0.24391902      -0.10020243 </v>
   <v>      -0.27395024      -0.42651707      -0.38942753 </v>
   <v>       0.07973532       0.21638829       0.18486964 </v>
   <v>      -0.28580195       0.13061659       0.45073603 </v>
   <v>       0.29653756      -0.39270146       0.33825668 </v>
   <v>       0.28744683       0.19643317       0.32784291 </v>
   <v>      -0.01588293      -0.07106244      -0.41175142 </v>
   <v>      -0.19873951       0.39707415      -0.26668988 </v>
   <v>      -0.15206244      -0.26245073      -0.45665101 </v>
   <v>      -0.39992098       0.27831024      -0.39072146 </v>
   <v>       0.43787902      -0.02827122      -0.47359190 </v>
   <v>       0.20559610       0.05272322      -0.33773765 </v>
   <v>      -0.47303122       0.49153268      -0.39139271 </v>
   <v>      -0.07021073       0.38964683       0.23326154 </v>
   <v>       0.47818927       0.18579512       0.46366154 </v>
   <v>      -0.20550537       0.33513073       0.37663968 </v>
   <v>       0.18315415      -0.44064878      -0.25645911 </v>
   <v>       0.09477971       0.43108780      -0.01574899 </v>
   <v>       0.00636619       0.35925268      -0.26386640 </v>
   <v>       0.18567610       0.38351902       0.13707368 </v>
   <v>      -0.02068293      -0.37876976       0.45617814 </v>
   <v>       0.02612341       0.19177854      -0.41095547 </v>
   <v>       0.29856976      -0.47859122      -0.40041296 </v>
   <v>       0.19952488      -0.09169366       0.48624939 </v>
   <v>       0.44678244       0.40444390       0.43612065 </v>
   <v>       0.19625073      -0.28604780       0.48670202 </v>
   <v>       0.23987024       0.43376000       0.41214575 </v>
   <v>       0.02590449       0.36772488       0.45020081 </v>
  </varray>
 </structure>
 <varray name="primitive_index" >
  <v type="int" >        1 </v>
  <v type="int" >       54 </v>
  <v type="int" >       51 </v>
  <v type="int" >       30 </v>
  <v type="int" >       59 </v>
  <v type="int" >       27 </v>
  <v type="int" >       38 </v>
  <v type="int" >       28 </v>
  <v type="int" >       19 </v>
  <v type="int" >       17 </v>
  <v type="int" >       15 </v>
  <v type="int" >       37 </v>
  <v type="int" >       43 </v>
  <v type="int" >       56 </v>
  <v type="int" >       64 </v>
  <v type="int" >       26 </v>
  <v type="int" >       58 </v>
  <v type="int" >       12 </v>
  <v type="int" >       16 </v>
  <v type="int" >        8 </v>
  <v type="int" >       24 </v>
  <v type="int" >        7 </v>
  <v type="int" >       57 </v>
  <v type="int" >       47 </v>
  <v type="int" >       36 </v>
  <v type="int" >       21 </v>
  <v type="int" >       65 </v>
  <v type="int" >       20 </v>
  <v type="int" >       42 </v>
  <v type="int" >       46 </v>
  <v type="int" >        3 </v>
  <v type="int" >       22 </v>
  <v type="int" >       49 </v>
  <v type="int" >       63 </v>
  <v type="int" >        4 </v>
  <v type="int" >       32 </v>
  <v type="int" >       52 </v>
  <v type="int" >       48 </v>
  <v type="int" >        2 </v>
  <v type="int" >       50 </v>
  <v type="int" >       25 </v>
  <v type="int" >       31 </v>
  <v type="int" >        5 </v>
  <v type="int" >        9 </v>
  <v type="int" >       55 </v>
  <v type="int" >       40 </v>
  <v type="int" >       29 </v>
  <v type="int" >       11 </v>
  <v type="int" >        6 </v>
  <v type="int" >       61 </v>
  <v type="int" >       10 </v>
  <v type="int" >       53 </v>
  <v type="int" >       62 </v>
  <v type="int" >       45 </v>
  <v type="int" >       33 </v>
  <v type="int" >       13 </v>
  <v type="int" >       44 </v>
  <v type="int" >       35 </v>
  <v type="int" >       41 </v>
  <v type="int" >       14 </v>
  <v type="int" >       39 </v>
  <v type="int" >       18 </v>
  <v type="int" >       34 </v>
  <v type="int" >       60 </v>
  <v type="int" >       23 </v>
 </varray>
 <kpoints>
  <generation param="Gamma">
   <v type="int" name="divisions">       1        1        1 </v>
   <v name="usershift">      0.00000000       0.00000000       0.00000000 </v>
   <v name="genvec1">      1.00000000       0.00000000       0.00000000 </v>
   <v name="genvec2">      0.00000000       1.00000000       0.00000000 </v>
   <v name="genvec3">      0.00000000       0.00000000       1.00000000 </v>
   <v name="shift">      0.00000000       0.00000000       0.00000000 </v>
  </generation>
  <varray name="kpointlist" >
   <v>       0.00000000       0.00000000       0.00000000 </v>
  </varray>
  <varray name="weights" >
   <v>       1.00000000 </v>
  </varray>
 </kpoints>
 <parameters>
  <separator name="general" >
   <i type="string" name="SYSTEM">LPSC</i>
   <i type="logical" name="LCOMPAT"> F  </i>
  </separator>
  <separator name="electronic" >
   <i type="string" name="PREC">normal</i>
   <i name="ENMAX">    500.00000000</i>
   <i name="ENAUG">    628.94500000</i>
   <i name="EDIFF">      0.00000100</i>
   <i type="int" name="IALGO">    48</i>
   <i type="int" name="IWAVPR">    11</i>
   <i type="int" name="NBANDS">   184</i>
   <i name="NELECT">    300.00000000</i>
   <i type="int" name="TURBO">     0</i>
   <i type="int" name="IRESTART">     0</i>
   <i type="int" name="NREBOOT">     0</i>
   <i type="int" name="NMIN">     0</i>
   <i name="EREF">      0.00000000</i>
   <separator name="electronic smearing" >
    <i type="int" name="ISMEAR">     0</i>
    <i name="SIGMA">      0.05000000</i>
    <i name="KSPACING">      0.50000000</i>
    <i type="logical" name="KGAMMA"> T  </i>
   </separator>
   <separator name="electronic projectors" >
    <i type="logical" name="LREAL"> F  </i>
    <v name="ROPT">      0.00000000      0.00000000      0.00000000      0.00000000</v>
    <i type="int" name="LMAXPAW">  -100</i>
    <i type="int" name="LMAXMIX">     2</i>
    <i type="logical" name="NLSPLINE"> F  </i>
   </separator>
   <separator name="electronic startup" >
    <i type="int" name="ISTART">     0</i>
    <i type="int" name="ICHARG">     2</i>
    <i type="int" name="INIWAV">     1</i>
   </separator>
   <separator name="electronic spin" >
    <i type="int" name="ISPIN">     1</i>
    <i type="logical" name="LNONCOLLINEAR"> F  </i>
    <v name="MAGMOM">      1.00000000      1.00000000      1.00000000      1.00000000      1.00000000      1.00000000      1.00000000      1.00000000      1.00000000      1.00000000      1.00000000      1.00000000      1.00000000      1.00000000      1.00000000      1.00000000      1.00000000      1.00000000      1.00000000      1.00000000
      1.00000000      1.00000000      1.00000000      1.00000000      1.00000000      1.00000000      1.00000000      1.00000000      1.00000000      1.00000000      1.00000000      1.00000000      1.00000000      1.00000000      1.00000000      1.00000000      1.00000000      1.00000000      1.00000000      1.00000000
      1.00000000      1.00000000      1.00000000      1.00000000      1.00000000      1.00000000      1.00000000      1.00000000      1.00000000      1.00000000      1.00000000      1.00000000      1.00000000      1.00000000      1.00000000      1.00000000      1.00000000      1.00000000      1.00000000      1.00000000
      1.00000000      1.00000000      1.00000000      1.00000000      1.00000000</v>
    <i name="NUPDOWN">     -1.00000000</i>
    <i type="logical" name="LSORBIT"> F  </i>
    <v name="SAXIS">      0.00000000      0.00000000      1.00000000</v>
    <i type="logical" name="LSPIRAL"> F  </i>
    <v name="QSPIRAL">      0.00000000      0.00000000      0.00000000</v>
    <i type="logical" name="LZEROZ"> F  </i>
   </separator>
   <separator name="electronic exchange-correlation" >
    <i type="logical" name="LASPH"> F  </i>
    <i type="logical" name="LMETAGGA"> F  </i>
   </separator>
   <separator name="electronic convergence" >
    <i type="int" name="NELM">   100</i>
    <i type="int" name="NELMDL">   -12</i>
    <i type="int" name="NELMIN">     2</i>
    <i name="ENINI">    500.00000000</i>
    <separator name="electronic convergence detail" >
     <i type="logical" name="LDIAG"> T  </i>
     <i type="logical" name="LSUBROT"> F  </i>
     <i name="WEIMIN">      0.00100000</i>
     <i name="EBREAK">      0.00000000</i>
     <i name="DEPER">      0.30000000</i>
     <i type="int" name="NRMM">     4</i>
     <i name="TIME">      0.40000000</i>
    </separator>
   </separator>
   <separator name="electronic mixer" >
    <i name="AMIX">      0.40000000</i>
    <i name="BMIX">      1.00000000</i>
    <i name="AMIN">      0.10000000</i>
    <i name="AMIX_MAG">      1.60000000</i>
    <i name="BMIX_MAG">      1.00000000</i>
    <separator name="electronic mixer details" >
     <i type="int" name="IMIX">     4</i>
     <i type="logical" name="MIXFIRST"> F  </i>
     <i type="int" name="MAXMIX">   -45</i>
     <i name="WC">    100.00000000</i>
     <i type="int" name="INIMIX">     1</i>
     <i type="int" name="MIXPRE">     1</i>
     <i type="int" name="MREMOVE">     5</i>
    </separator>
   </separator>
   <separator name="electronic dipolcorrection" >
    <i type="logical" name="LDIPOL"> F  </i>
    <i type="logical" name="LMONO"> F  </i>
    <i type="int" name="IDIPOL">     0</i>
    <i name="EPSILON">      1.00000000</i>
    <v name="DIPOL">   -100.00000000   -100.00000000   -100.00000000</v>
    <i name="EFIELD">      0.00000000</i>
   </separator>
  </separator>
  <separator name="grids" >
   <i type="int" name="NGX">    56</i>
   <i type="int" name="NGY">    56</i>
   <i type="int" name="NGZ">    70</i>
   <i type="int" name="NGXF">   112</i>
   <i type="int" name="NGYF">   112</i>
   <i type="int" name="NGZF">   140</i>
   <i type="logical" name="ADDGRID"> F  </i>
  </separator>
  <separator name="ionic" >
   <i type="int" name="NSW">     1</i>
   <i type="int" name="IBRION">     2</i>
   <i type="int" name="MDALGO">     0</i>
   <i type="int" name="ISIF">     2</i>
   <i name="PSTRESS">      0.00000000</i>
   <i name="EDIFFG">     -0.01000000</i>
   <i type="int" name="NFREE">     1</i>
   <i name="POTIM">      0.50000000</i>
   <i name="SMASS">     -3.00000000</i>
   <i name="SCALEE">      1.00000000</i>
  </separator>
  <separator name="ionic md" >
   <i name="TEBEG">      0.00010000</i>
   <i name="TEEND">      0.00010000</i>
   <i type="int" name="NBLOCK">     1</i>
   <i type="int" name="KBLOCK">     1</i>
   <i type="int" name="NPACO">   256</i>
   <i name="APACO">     16.00000000</i>
  </separator>
  <separator name="symmetry" >
   <i type="int" name="ISYM">     0</i>
   <i name="SYMPREC">      0.00001000</i>
  </separator>
  <separator name="dos" >
   <i type="int" name="LORBIT">    11</i>
   <v name="RWIGS">     -1.00000000     -1.00000000     -1.00000000     -1.00000000</v>
   <i type="int" name="NEDOS">   301</i>
   <i name="EMIN">     10.00000000</i>
   <i name="EMAX">    -10.00000000</i>
   <i name="EFERMI">      0.00000000</i>
  </separator>
  <separator name="writing" >
   <i type="int" name="NWRITE">     2</i>
   <i type="logical" name="LWAVE"> F  </i>
   <i type="logical" name="LDOWNSAMPLE"> F  </i>
   <i type="logical" name="LCHARG"> F  </i>
   <i type="logical" name="LPARD"> F  </i>
   <i type="logical" name="LVTOT"> F  </i>
   <i type="logical" name="LVHAR"> F  </i>
   <i type="logical" name="LELF"> F  </i>
   <i type="logical" name="LOPTICS"> F  </i>
   <v name="STM">      0.00000000      0.00000000      0.00000000      0.00000000      0.00000000      0.00000000      0.00000000</v>
  </separator>
  <separator name="performance" >
   <i type="int" name="NPAR">     8</i>
   <i type="int" name="NSIM">     4</i>
   <i type="int" name="NBLK">    -1</i>
   <i type="logical" name="LPLANE"> T  </i>
   <i type="logical" name="LSCALAPACK"> T  </i>
   <i type="logical" name="LSCAAWARE"> F  </i>
   <i type="logical" name="LSCALU"> F  </i>
   <i type="logical" name="LASYNC"> F  </i>
   <i type="logical" name="LORBITALREAL"> F  </i>
  </separator>
  <separator name="miscellaneous" >
   <i type="int" name="IDIOT">     3</i>
   <i type="int" name="ISPECIAL">     0</i>
   <i type="logical" name="LMUSIC"> F  </i>
   <v name="POMASS">      7.01000000     30.97400000     32.06600000     35.45300000</v>
   <v name="DARWINR">      0.00000000      0.00000000      0.00000000      0.00000000</v>
   <v name="DARWINV">      1.00000000      1.00000000      1.00000000      1.00000000</v>
   <i type="logical" name="LCORR"> T  </i>
  </separator>
  <i type="logical" name="GGA_COMPAT"> T  </i>
  <i type="logical" name="LBERRY"> F  </i>
  <i type="int" name="ICORELEVEL">     0</i>
  <i type="logical" name="LDAU"> F  </i>
  <i type="int" name="I_CONSTRAINED_M">     0</i>
  <separator name="electronic exchange-correlation" >
   <i type="string" name="GGA">--</i>
   <i type="int" name="VOSKOWN">     0</i>
   <i type="logical" name="LHFCALC"> F  </i>
   <i type="string" name="PRECFOCK"></i>
   <i type="logical" name="LSYMGRAD"> F  </i>
   <i type="logical" name="LHFONE"> F  </i>
   <i type="logical" name="LRHFCALC"> F  </i>
   <i type="logical" name="LTHOMAS"> F  </i>
   <i type="logical" name="LMODELHF"> F  </i>
   <i name="ENCUT4O">     -1.00000000</i>
   <i type="int" name="EXXOEP">     0</i>
   <i type="int" name="FOURORBIT">     0</i>
   <i name="AEXX">      0.00000000</i>
   <i name="HFALPHA">      0.00000000</i>
   <i name="MCALPHA">      0.00000000</i>
   <i name="ALDAX">      1.00000000</i>
   <i name="AGGAX">      1.00000000</i>
   <i name="ALDAC">      1.00000000</i>
   <i name="AGGAC">      1.00000000</i>
   <i type="int" name="NKREDX">     1</i>
   <i type="int" name="NKREDY">     1</i>
   <i type="int" name="NKREDZ">     1</i>
   <i type="logical" name="SHIFTRED"> F  </i>
   <i type="logical" name="ODDONLY"> F  </i>
   <i type="logical" name="EVENONLY"> F  </i>
   <i type="int" name="LMAXFOCK">     0</i>
   <i type="int" name="NMAXFOCKAE">     0</i>
   <i type="logical" name="LFOCKAEDFT"> F  </i>
   <i name="HFSCREEN">      0.00000000</i>
   <i name="HFSCREENC">      0.00000000</i>
   <i type="int" name="NBANDSGWLOW">     0</i>
  </separator>
  <separator name="vdW DFT" >
   <i type="logical" name="LUSE_VDW"> F  </i>
   <i name="Zab_VDW">     -0.84910000</i>
   <i name="PARAM1">      0.12340000</i>
   <i name="PARAM2">      1.00000000</i>
   <i name="PARAM3">      0.00000000</i>
  </separator>
  <separator name="model GW" >
   <i type="int" name="MODEL_GW">     0</i>
   <i name="MODEL_EPS0">     11.97712500</i>
   <i name="MODEL_ALPHA">      1.00000000</i>
  </separator>
  <separator name="linear response parameters" >
   <i type="logical" name="LEPSILON"> F  </i>
   <i type="logical" name="LRPA"> F  </i>
   <i type="logical" name="LNABLA"> F  </i>
   <i type="logical" name="LVEL"> F  </i>
   <i type="int" name="KINTER">     0</i>
   <i name="CSHIFT">      0.10000000</i>
   <i name="OMEGAMAX">     -1.00000000</i>
   <i name="DEG_THRESHOLD">      0.00200000</i>
   <i name="RTIME">     -0.10000000</i>
   <i name="WPLASMAI">      0.00000000</i>
   <v name="DFIELD">      0.00000000      0.00000000      0.00000000</v>
   <v name="WPLASMA">      0.00000000      0.00000000      0.00000000      0.00000000      0.00000000      0.00000000      0.00000000      0.00000000      0.00000000</v>
  </separator>
  <separator name="orbital magnetization" >
   <i type="logical" name="NUCIND"> F  </i>
   <v name="MAGPOS">      0.00000000      0.00000000      0.00000000</v>
   <i type="logical" name="LNICSALL"> T  </i>
   <i type="logical" name="ORBITALMAG"> F  </i>
   <i type="logical" name="LMAGBLOCH"> F  </i>
   <i type="logical" name="LCHIMAG"> F  </i>
   <i type="logical" name="LGAUGE"> T  </i>
   <i type="int" name="MAGATOM">     0</i>
   <v name="MAGDIPOL">      0.00000000      0.00000000      0.00000000</v>
   <v name="AVECCONST">      0.00000000      0.00000000      0.00000000</v>
  </separator>
  <separator name="response functions" >
   <i type="logical" name="LADDER"> F  </i>
   <i type="logical" name="LRPAFORCE"> F  </i>
   <i type="logical" name="LFXC"> F  </i>
   <i type="logical" name="LHARTREE"> T  </i>
   <i type="int" name="IBSE">     0</i>
   <v type="int" name="KPOINT">    -1     0     0     0</v>
   <i type="logical" name="LTCTE"> F  </i>
   <i type="logical" name="LTETE"> F  </i>
   <i type="logical" name="LTRIPLET"> F  </i>
   <i type="logical" name="LFXCEPS"> F  </i>
   <i type="logical" name="LFXHEG"> F  </i>
   <i type="int" name="NATURALO">     2</i>
   <i type="logical" name="L2ORDER"> F  </i>
   <i type="logical" name="LMP2LT"> F  </i>
   <i type="logical" name="LUSEW"> F  </i>
   <i name="ENCUTGW">     -2.00000000</i>
   <i name="ENCUTGWSOFT">     -2.00000000</i>
   <i name="ENCUTLF">     -1.00000000</i>
   <i type="int" name="LMAXMP2">    -1</i>
   <i name="SCISSOR">      0.00000000</i>
   <i type="int" name="NOMEGA">     0</i>
   <i type="int" name="NOMEGAR">     0</i>
   <i type="int" name="NBANDSGW">    -1</i>
   <i type="int" name="NBANDSO">    -1</i>
   <i type="int" name="NBANDSV">    -1</i>
   <i type="int" name="NELM">   100</i>
   <i type="int" name="NELMHF">     1</i>
   <i type="int" name="DIM">     3</i>
   <i type="int" name="ANTIRES">     0</i>
   <i name="OMEGAMAX">    -30.00000000</i>
   <i name="OMEGAMIN">    -30.00000000</i>
   <i name="OMEGATL">   -200.00000000</i>
   <i type="int" name="OMEGAGRID">   140</i>
   <i name="CSHIFT">     -0.10000000</i>
   <i type="logical" name="SELFENERGY"> F  </i>
   <i type="logical" name="LSPECTRAL"> F  </i>
   <i type="logical" name="LSPECTRALGW"> F  </i>
   <i type="logical" name="LSINGLES"> F  </i>
   <i type="logical" name="LFERMIGW"> F  </i>
   <i type="logical" name="ODDONLYGW"> F  </i>
   <i type="logical" name="EVENONLYGW"> F  </i>
   <i type="int" name="NKREDLFX">     1</i>
   <i type="int" name="NKREDLFY">     1</i>
   <i type="int" name="NKREDLFZ">     1</i>
   <i type="int" name="MAXMEM">  2800</i>
   <i type="int" name="TELESCOPE">     0</i>
   <i type="int" name="TAUPAR">     1</i>
   <i type="int" name="OMEGAPAR">    -1</i>
   <i name="LAMBDA">      1.00000000</i>
  </separator>
  <separator name="External order field" >
   <i name="OFIELD_KAPPA">      0.00000000</i>
   <v name="OFIELD_K">      0.00000000      0.00000000      0.00000000</v>
   <i name="OFIELD_Q6_NEAR">      0.00000000</i>
   <i name="OFIELD_Q6_FAR">      0.00000000</i>
   <i name="OFIELD_A">      0.00000000</i>
  </separator>
 </parameters>
 <atominfo>
  <atoms>      65 </atoms>
  <types>       4 </types>
  <array name="atoms" >
   <dimension dim="1">ion</dimension>
   <field type="string">element</field>
   <field type="int">atomtype</field>
   <set>
    <rc><c>Li</c><c>   1</c></rc>
    <rc><c>Li</c><c>   1</c></rc>
    <rc><c>Li</c><c>   1</c></rc>
    <rc><c>Li</c><c>   1</c></rc>
    <rc><c>Li</c><c>   1</c></rc>
    <rc><c>Li</c><c>   1</c></rc>
    <rc><c>Li</c><c>   1</c></rc>
    <rc><c>Li</c><c>   1</c></rc>
    <rc><c>Li</c><c>   1</c></rc>
    <rc><c>Li</c><c>   1</c></rc>
    <rc><c>Li</c><c>   1</c></rc>
    <rc><c>Li</c><c>   1</c></rc>
    <rc><c>Li</c><c>   1</c></rc>
    <rc><c>Li</c><c>   1</c></rc>
    <rc><c>Li</c><c>   1</c></rc>
    <rc><c>Li</c><c>   1</c></rc>
    <rc><c>Li</c><c>   1</c></rc>
    <rc><c>Li</c><c>   1</c></rc>
    <rc><c>Li</c><c>   1</c></rc>
    <rc><c>Li</c><c>   1</c></rc>
    <rc><c>Li</c><c>   1</c></rc>
    <rc><c>Li</c><c>   1</c></rc>
    <rc><c>Li</c><c>   1</c></rc>
    <rc><c>Li</c><c>   1</c></rc>
    <rc><c>Li</c><c>   1</c></rc>
    <rc><c>Li</c><c>   1</c></rc>
    <rc><c>Li</c><c>   1</c></rc>
    <rc><c>Li</c><c>   1</c></rc>
    <rc><c>Li</c><c>   1</c></rc>
    <rc><c>Li</c><c>   1</c></rc>
    <rc><c>P </c><c>   2</c></rc>
    <rc><c>P </c><c>   2</c></rc>
    <rc><c>P </c><c>   2</c></rc>
    <rc><c>P </c><c>   2</c></rc>
    <rc><c>P </c><c>   2</c></rc>
    <rc><c>S </c><c>   3</c></rc>
    <rc><c>S </c><c>   3</c></rc>
    <rc><c>S </c><c>   3</c></rc>
    <rc><c>S </c><c>   3</c></rc>
    <rc><c>S </c><c>   3</c></rc>
    <rc><c>S </c><c>   3</c></rc>
    <rc><c>S </c><c>   3</c></rc>
    <rc><c>S </c><c>   3</c></rc>
    <rc><c>S </c><c>   3</c></rc>
    <rc><c>S </c><c>   3</c></rc>
    <rc><c>S </c><c>   3</c></rc>
    <rc><c>S </c><c>   3</c></rc>
    <rc><c>S </c><c>   3</c></rc>
    <rc><c>S </c><c>   3</c></rc>
    <rc><c>S </c><c>   3</c></rc>
    <rc><c>S </c><c>   3</c></rc>
    <rc><c>S </c><c>   3</c></rc>
    <rc><c>S </c><c>   3</c></rc>
    <rc><c>S </c><c>   3</c></rc>
    <rc><c>S </c><c>   3</c></rc>
    <rc><c>S </c><c>   3</c></rc>
    <rc><c>S </c><c>   3</c></rc>
    <rc><c>S </c><c>   3</c></rc>
    <rc><c>S </c><c>   3</c></rc>
    <rc><c>S </c><c>   3</c></rc>
    <rc><c>Cl</c><c>   4</c></rc>
    <rc><c>Cl</c><c>   4</c></rc>
    <rc><c>Cl</c><c>   4</c></rc>
    <rc><c>Cl</c><c>   4</c></rc>
    <rc><c>Cl</c><c>   4</c></rc>
   </set>
  </array>
  <array name="atomtypes" >
   <dimension dim="1">type</dimension>
   <field type="int">atomspertype</field>
   <field type="string">element</field>
   <field>mass</field>
   <field>valence</field>
   <field type="string">pseudopotential</field>
   <set>
    <rc><c>  30</c><c>Li</c><c>      7.01000000</c><c>      3.00000000</c><c>  PAW_PBE Li_sv 10Sep2004               </c></rc>
    <rc><c>   5</c><c>P </c><c>     30.97400000</c><c>      5.00000000</c><c>  PAW_PBE P 06Sep2000                   </c></rc>
    <rc><c>  25</c><c>S </c><c>     32.06600000</c><c>      6.00000000</c><c>  PAW_PBE S 06Sep2000                   </c></rc>
    <rc><c>   5</c><c>Cl</c><c>     35.45300000</c><c>      7.00000000</c><c>  PAW_PBE Cl 06Sep2000                  </c></rc>
   </set>
  </array>
 </atominfo>
 <structure name="initialpos" >
  <crystal>
   <varray name="basis" >
    <v>      10.25000000       0.00000000       0.00000000 </v>
    <v>       0.00000000      10.25000000       0.00000000 </v>
    <v>       0.00000000       0.00000000      12.35000000 </v>
   </varray>
   <i name="volume">   1297.52187500 </i>
   <varray name="rec_basis" >
    <v>       0.09756098       0.00000000       0.00000000 </v>
    <v>       0.00000000       0.09756098       0.00000000 </v>
    <v>       0.00000000       0.00000000       0.08097166 </v>
   </varray>
  </crystal>
  <varray name="positions" >
   <v>       0.63914732       0.89129366       0.00869166 </v>
   <v>       0.72604976       0.57348293       0.61057247 </v>
   <v>       0.22104293       0.17220390       0.02570453 </v>
   <v>       0.16054634       0.70189171       0.20407935 </v>
   <v>       0.28744683       0.19643317       0.32784291 </v>
   <v>       0.20559610       0.05272322       0.66226235 </v>
   <v>       0.73905951       0.56402537       0.21632794 </v>
   <v>       0.50840585       0.08027727       0.30240972 </v>
   <v>       0.98411707       0.92893756       0.58824858 </v>
   <v>       0.92978927       0.38964683       0.23326154 </v>
   <v>       0.43787902       0.97172878       0.52640810 </v>
   <v>       0.89302537       0.59144976       0.01420883 </v>
   <v>       0.00636619       0.35925268       0.73613360 </v>
   <v>       0.29856976       0.52140878       0.59958704 </v>
   <v>       0.59976780       0.23901366       0.98769231 </v>
   <v>       0.84082244       0.19343805       0.83217004 </v>
   <v>       0.62000000       0.54175805       0.99106883 </v>
   <v>       0.44678244       0.40444390       0.43612065 </v>
   <v>       0.48191512       0.65248098       0.15293117 </v>
   <v>       0.20839610       0.73927902       0.86379757 </v>
   <v>       0.68817171       0.24621073       0.22142186 </v>
   <v>       0.97490244       0.69611707       0.72543158 </v>
   <v>       0.02590449       0.36772488       0.45020081 </v>
   <v>       0.90608976       0.21611024       0.03983190 </v>
   <v>       0.71419805       0.13061659       0.45073603 </v>
   <v>       0.54672780       0.63582439       0.77620972 </v>
   <v>       0.62543512       0.83284195       0.24400405 </v>
   <v>       0.70778634       0.04742068       0.77054089 </v>
   <v>       0.60007902       0.27831024       0.60927854 </v>
   <v>       0.89706341       0.87465854       0.02494842 </v>
   <v>       0.29653756       0.60729854       0.33825668 </v>
   <v>       0.28041659       0.47640683       0.88577328 </v>
   <v>       0.09477971       0.43108780       0.98425101 </v>
   <v>       0.19625073       0.71395220       0.48670202 </v>
   <v>       0.97931707       0.62123024       0.45617814 </v>
   <v>       0.36751512       0.10789463       0.80393522 </v>
   <v>       0.38227610       0.88986244       0.22254413 </v>
   <v>       0.43818049       0.91603024       0.82918219 </v>
   <v>       0.19952488       0.90830634       0.48624939 </v>
   <v>       0.84793756       0.73754927       0.54334899 </v>
   <v>       0.02612341       0.19177854       0.58904453 </v>
   <v>       0.50425561       0.61526732       0.33516194 </v>
   <v>       0.39336195       0.62022829       0.95204049 </v>
   <v>       0.18567610       0.38351902       0.13707368 </v>
   <v>       0.18315415       0.55935122       0.74354089 </v>
   <v>       0.77123122       0.36980000       0.07601304 </v>
   <v>       0.76971610       0.55876390       0.81620243 </v>
   <v>       0.07510156       0.24391902       0.89979757 </v>
   <v>       0.95066244       0.64856195       0.29106235 </v>
   <v>       0.07973532       0.21638829       0.18486964 </v>
   <v>       0.78543024       0.05300517       0.95821862 </v>
   <v>       0.83781561       0.11875707       0.60612551 </v>
   <v>       0.47818927       0.18579512       0.46366154 </v>
   <v>       0.69243707       0.72294537       0.08812389 </v>
   <v>       0.80126049       0.39707415       0.73331012 </v>
   <v>       0.44967512       0.18136000       0.14405101 </v>
   <v>       0.53679610       0.22710537       0.80962348 </v>
   <v>       0.55724585       0.85242146       0.69178543 </v>
   <v>       0.41365951       0.00627303       0.07861992 </v>
   <v>       0.23987024       0.43376000       0.41214575 </v>
   <v>       0.52696878       0.49153268       0.60860729 </v>
   <v>       0.79449463       0.33513073       0.37663968 </v>
   <v>       0.08869483       0.89876390       0.75721862 </v>
   <v>       0.75070732       0.03022712       0.29053846 </v>
   <v>       0.07395356       0.75173073       0.02675951 </v>
  </varray>
 </structure>
 <calculation>
  <scstep>
   <time name="diag">    0.25    0.26</time>
   <time name="diis">    0.34    0.34</time>
   <time name="orth">    0.02    0.02</time>
   <time name="total">    0.72    0.76</time>
   <energy>
    <i name="alphaZ">    256.70245505 </i>
    <i name="ewald">  -9896.36095581 </i>
    <i name="hartreedc">  -3364.25357993 </i>
    <i name="XCdc">    791.82153409 </i>
    <i name="pawpsdc">  10155.13001117 </i>
    <i name="pawaedc"> -10497.29644279 </i>
    <i name="eentropy">     -0.00000000 </i>
    <i name="bandstr">  -4520.39528907 </i>
    <i name="atom">  15932.49537490 </i>
    <i name="e_fr_energy">  -1142.15689239 </i>
    <i name="e_wo_entrp">  -1142.15689239 </i>
    <i name="e_0_energy">  -1142.15689239 </i>
   </energy>
  </scstep>
  <scstep>
   <time name="diag">    0.19    0.19</time>
   <time name="diis">    0.32    0.32</time>
   <time name="orth">    0.02    0.02</time>
   <time name="total">    0.53    0.53</time>
   <energy>
    <i name="e_fr_energy">    739.53213447 </i>
    <i name="e_wo_entrp">    739.55121040 </i>
    <i name="e_0_energy">    739.54167244 </i>
   </energy>
  </scstep>
  <scstep>
   <time name="diag">    0.18    0.18</time>
   <time name="diis">    0.32    0.32</time>
   <time name="orth">    0.02    0.02</time>
   <time name="total">    0.53    0.53</time>
   <energy>
    <i name="e_fr_energy">    243.95789085 </i>
    <i name="e_wo_entrp">    243.96950943 </i>
    <i name="e_0_energy">    243.96370014 </i>
   </energy>
  </scstep>
  <scstep>
   <time name="diag">    0.18    0.18</time>
   <time name="diis">    0.32    0.32</time>
   <time name="orth">    0.02    0.02</time>
   <time name="total">    0.53    0.53</time>
   <energy>
    <i name="e_fr_energy">    -13.43394184 </i>
    <i name="e_wo_entrp">    -13.38910556 </i>
    <i name="e_0_energy">    -13.41152370 </i>
   </energy>
  </scstep>
  <scstep>
   <time name="diag">    0.18    0.18</time>
   <time name="diis">    0.32    0.32</time>
   <time name="orth">    0.02    0.02</time>
   <time name="total">    0.52    0.53</time>
   <energy>
    <i name="e_fr_energy">   -125.44721262 </i>
    <i name="e_wo_entrp">   -125.44721262 </i>
    <i name="e_0_energy">   -125.44721262 </i>
   </energy>
  </scstep>
  <scstep>
   <time name="diag">    0.18    0.18</time>
   <time name="diis">    0.32    0.32</time>
   <time name="orth">    0.02    0.02</time>
   <time name="total">    0.52    0.52</time>
   <energy>
    <i name="e_fr_energy">   -172.06456462 </i>
    <i name="e_wo_entrp">   -172.06456462 </i>
    <i name="e_0_energy">   -172.06456462 </i>
   </energy>
  </scstep>
  <scstep>
   <time name="diag">    0.18    0.18</time>
   <time name="diis">    0.32    0.32</time>
   <time name="orth">    0.02    0.02</time>
   <time name="total">    0.52    0.52</time>
   <energy>
    <i name="e_fr_energy">   -194.44760846 </i>
    <i name="e_wo_entrp">   -194.44760846 </i>
    <i name="e_0_energy">   -194.44760846 </i>
   </energy>
  </scstep>
  <scstep>
   <time name="diag">    0.18    0.18</time>
   <time name="diis">    0.32    0.32</time>
   <time name="orth">    0.02    0.02</time>
   <time name="total">    0.52    0.52</time>
   <energy>
    <i name="e_fr_energy">   -207.61905669 </i>
    <i name="e_wo_entrp">   -207.61905669 </i>
    <i name="e_0_energy">   -207.61905669 </i>
   </energy>
  </scstep>
  <scstep>
   <time name="diag">    0.18    0.18</time>
   <time name="diis">    1.14    1.14</time>
   <time name="orth">    0.03    0.03</time>
   <time name="total">    1.36    1.36</time>
   <energy>
    <i name="e_fr_energy">   -242.32502826 </i>
    <i name="e_wo_entrp">   -242.32502826 </i>
    <i name="e_0_energy">   -242.32502826 </i>
   </energy>
  </scstep>
  <scstep>
   <time name="diag">    0.21    0.21</time>
   <time name="diis">    1.28    1.28</time>
   <time name="orth">    0.03    0.03</time>
   <time name="total">    1.51    1.51</time>
   <energy>
    <i name="e_fr_energy">   -260.19946802 </i>
    <i name="e_wo_entrp">   -260.19946802 </i>
    <i name="e_0_energy">   -260.19946802 </i>
   </energy>
  </scstep>
  <scstep>
   <time name="diag">    0.19    0.19</time>
   <time name="diis">    1.09    1.09</time>
   <time name="orth">    0.03    0.03</time>
   <time name="total">    1.31    1.31</time>
   <energy>
    <i name="e_fr_energy">   -264.10651641 </i>
    <i name="e_wo_entrp">   -264.10651641 </i>
    <i name="e_0_energy">   -264.10651641 </i>
   </energy>
  </scstep>
  <scstep>
   <time name="diag">    0.19    0.19</time>
   <time name="diis">    1.08    1.08</time>
   <time name="orth">    0.03    0.03</time>
   <time name="total">    1.35    1.36</time>
   <energy>
    <i name="e_fr_energy">   -266.25498369 </i>
    <i name="e_wo_entrp">   -266.25498369 </i>
    <i name="e_0_energy">   -266.25498369 </i>
   </energy>
  </scstep>
  <scstep>
   <time name="diag">    0.18    0.18</time>
   <time name="diis">    0.84    0.84</time>
   <time name="orth">    0.03    0.03</time>
   <time name="total">    1.18    1.18</time>
   <energy>
    <i name="e_fr_energy">   -257.16461424 </i>
    <i name="e_wo_entrp">   -257.16461424 </i>
    <i name="e_0_energy">   -257.16461424 </i>
   </energy>
  </scstep>
  <scstep>
   <time name="diag">    0.18    0.18</time>
   <time name="diis">    0.88    0.88</time>
   <time name="orth">    0.03    0.03</time>
   <time name="total">    1.22    1.22</time>
   <energy>
    <i name="e_fr_energy">   -256.14420693 </i>
    <i name="e_wo_entrp">   -256.14420693 </i>
    <i name="e_0_energy">   -256.14420693 </i>
   </energy>
  </scstep>
  <scstep>
   <time name="diag">    0.19    0.19</time>
   <time name="diis">    1.02    1.02</time>
   <time name="orth">    0.03    0.03</time>
   <time name="total">    1.36    1.36</time>
   <energy>
    <i name="e_fr_energy">   -256.25933238 </i>
    <i name="e_wo_entrp">   -256.25933238 </i>
    <i name="e_0_energy">   -256.25933238 </i>
   </energy>
  </scstep>
  <scstep>
   <time name="diag">    0.18    0.18</time>
   <time name="diis">    1.09    1.09</time>
   <time name="orth">    0.04    0.04</time>
   <time name="total">    1.44    1.44</time>
   <energy>
    <i name="e_fr_energy">   -256.38216478 </i>
    <i name="e_wo_entrp">   -256.38216478 </i>
    <i name="e_0_energy">   -256.38216478 </i>
   </energy>
  </scstep>
  <scstep>
   <time name="diag">    0.20    0.19</time>
   <time name="diis">    1.20    1.21</time>
   <time name="orth">    0.03    0.03</time>
   <time name="total">    1.58    1.58</time>
   <energy>
    <i name="e_fr_energy">   -256.47396526 </i>
    <i name="e_wo_entrp">   -256.47396526 </i>
    <i name="e_0_energy">   -256.47396526 </i>
   </energy>
  </scstep>
  <scstep>
   <time name="diag">    0.20    0.20</time>
   <time name="diis">    1.13    1.13</time>
   <time name="orth">    0.03    0.03</time>
   <time name="total">    1.51    1.51</time>
   <energy>
    <i name="e_fr_energy">   -256.53360000 </i>
    <i name="e_wo_entrp">   -256.53360000 </i>
    <i name="e_0_energy">   -256.53360000 </i>
   </energy>
  </scstep>
  <scstep>
   <time name="diag">    0.19    0.19</time>
   <time name="diis">    1.18    1.18</time>
   <time name="orth">    0.03    0.03</time>
   <time name="total">    1.52    1.52</time>
   <energy>
    <i name="e_fr_energy">   -256.57277335 </i>
    <i name="e_wo_entrp">   -256.57277335 </i>
    <i name="e_0_energy">   -256.57277335 </i>
   </energy>
  </scstep>
  <scstep>
   <time name="diag">    0.18    0.18</time>
   <time name="diis">    1.08    1.08</time>
   <time name="orth">    0.03    0.03</time>
   <time name="total">    1.42    1.42</time>
   <energy>
    <i name="e_fr_energy">   -256.59116041 </i>
    <i name="e_wo_entrp">   -256.59116041 </i>
    <i name="e_0_energy">   -256.59116041 </i>
   </energy>
  </scstep>
  <scstep>
   <time name="diag">    0.18    0.18</time>
   <time name="diis">    1.04    1.04</time>
   <time name="orth">    0.03    0.03</time>
   <time name="total">    1.38    1.38</time>
   <energy>
    <i name="e_fr_energy">   -256.60407187 </i>
    <i name="e_wo_entrp">   -256.60407187 </i>
    <i name="e_0_energy">   -256.60407187 </i>
   </energy>
  </scstep>
  <scstep>
   <time name="diag">    0.18    0.18</time>
   <time name="diis">    1.03    1.03</time>
   <time name="orth">    0.03    0.03</time>
   <time name="total">    1.37    1.37</time>
   <energy>
    <i name="e_fr_energy">   -256.61034168 </i>
    <i name="e_wo_entrp">   -256.61034168 </i>
    <i name="e_0_energy">   -256.61034168 </i>
   </energy>
  </scstep>
  <scstep>
   <time name="diag">    0.19    0.19</time>
   <time name="diis">    1.04    1.04</time>
   <time name="orth">    0.03    0.03</time>
   <time name="total">    1.39    1.39</time>
   <energy>
    <i name="e_fr_energy">   -256.61448371 </i>
    <i name="e_wo_entrp">   -256.61448371 </i>
    <i name="e_0_energy">   -256.61448371 </i>
   </energy>
  </scstep>
  <scstep>
   <time name="diag">    0.18    0.18</time>
   <time name="diis">    1.08    1.08</time>
   <time name="orth">    0.03    0.03</time>
   <time name="total">    1.42    1.42</time>
   <energy>
    <i name="e_fr_energy">   -256.61538658 </i>
    <i name="e_wo_entrp">   -256.61538658 </i>
    <i name="e_0_energy">   -256.61538658 </i>
   </energy>
  </scstep>
  <scstep>
   <time name="diag">    0.18    0.18</time>
   <time name="diis">    1.00    1.00</time>
   <time name="orth">    0.03    0.03</time>
   <time name="total">    1.34    1.34</time>
   <energy>
    <i name="e_fr_energy">   -256.61878487 </i>
    <i name="e_wo_entrp">   -256.61878487 </i>
    <i name="e_0_energy">   -256.61878487 </i>
   </energy>
  </scstep>
  <scstep>
   <time name="diag">    0.18    0.18</time>
   <time name="diis">    1.03    1.03</time>
   <time name="orth">    0.03    0.03</time>
   <time name="total">    1.36    1.36</time>
   <energy>
    <i name="e_fr_energy">   -256.62045689 </i>
    <i name="e_wo_entrp">   -256.62045689 </i>
    <i name="e_0_energy">   -256.62045689 </i>
   </energy>
  </scstep>
  <scstep>
   <time name="diag">    0.18    0.18</time>
   <time name="diis">    1.03    1.03</time>
   <time name="orth">    0.03    0.03</time>
   <time name="total">    1.37    1.37</time>
   <energy>
    <i name="e_fr_energy">   -256.62141307 </i>
    <i name="e_wo_entrp">   -256.62141307 </i>
    <i name="e_0_energy">   -256.62141307 </i>
   </energy>
  </scstep>
  <scstep>
   <time name="diag">    0.18    0.18</time>
   <time name="diis">    1.01    1.01</time>
   <time name="orth">    0.03    0.03</time>
   <time name="total">    1.35    1.35</time>
   <energy>
    <i name="e_fr_energy">   -256.62223144 </i>
    <i name="e_wo_entrp">   -256.62223144 </i>
    <i name="e_0_energy">   -256.62223144 </i>
   </energy>
  </scstep>
  <scstep>
   <time name="diag">    0.18    0.18</time>
   <time name="diis">    0.98    0.98</time>
   <time name="orth">    0.04    0.04</time>
   <time name="total">    1.33    1.33</time>
   <energy>
    <i name="e_fr_energy">   -256.62272518 </i>
    <i name="e_wo_entrp">   -256.62272518 </i>
    <i name="e_0_energy">   -256.62272518 </i>
   </energy>
  </scstep>
  <scstep>
   <time name="diag">    0.18    0.18</time>
   <time name="diis">    0.97    0.97</time>
   <time name="orth">    0.04    0.04</time>
   <time name="total">    1.32    1.32</time>
   <energy>
    <i name="e_fr_energy">   -256.62308240 </i>
    <i name="e_wo_entrp">   -256.62308240 </i>
    <i name="e_0_energy">   -256.62308240 </i>
   </energy>
  </scstep>
  <scstep>
   <time name="diag">    0.18    0.18</time>
   <time name="diis">    1.08    1.07</time>
   <time name="orth">    0.04    0.04</time>
   <time name="total">    1.44    1.44</time>
   <energy>
    <i name="e_fr_energy">   -256.62317808 </i>
    <i name="e_wo_entrp">   -256.62317808 </i>
    <i name="e_0_energy">   -256.62317808 </i>
   </energy>
  </scstep>
  <scstep>
   <time name="diag">    0.20    0.20</time>
   <time name="diis">    1.05    1.05</time>
   <time name="orth">    0.04    0.04</time>
   <time name="total">    1.43    1.43</time>
   <energy>
    <i name="e_fr_energy">   -256.62330854 </i>
    <i name="e_wo_entrp">   -256.62330854 </i>
    <i name="e_0_energy">   -256.62330854 </i>
   </energy>
  </scstep>
  <scstep>
   <time name="diag">    0.18    0.18</time>
   <time name="diis">    0.98    0.98</time>
   <time name="orth">    0.03    0.03</time>
   <time name="total">    1.33    1.32</time>
   <energy>
    <i name="e_fr_energy">   -256.62346435 </i>
    <i name="e_wo_entrp">   -256.62346435 </i>
    <i name="e_0_energy">   -256.62346435 </i>
   </energy>
  </scstep>
  <scstep>
   <time name="diag">    0.18    0.18</time>
   <time name="diis">    0.97    0.97</time>
   <time name="orth">    0.03    0.03</time>
   <time name="total">    1.32    1.32</time>
   <energy>
    <i name="e_fr_energy">   -256.62357371 </i>
    <i name="e_wo_entrp">   -256.62357371 </i>
    <i name="e_0_energy">   -256.62357371 </i>
   </energy>
  </scstep>
  <scstep>
   <time name="diag">    0.18    0.18</time>
   <time name="diis">    0.97    0.97</time>
   <time name="orth">    0.04    0.04</time>
   <time name="total">    1.32    1.32</time>
   <energy>
    <i name="e_fr_energy">   -256.62366150 </i>
    <i name="e_wo_entrp">   -256.62366150 </i>
    <i name="e_0_energy">   -256.62366150 </i>
   </energy>
  </scstep>
  <scstep>
   <time name="diag">    0.18    0.18</time>
   <time name="diis">    0.97    0.97</time>
   <time name="orth">    0.03    0.03</time>
   <time name="total">    1.32    1.32</time>
   <energy>
    <i name="e_fr_energy">   -256.62372595 </i>
    <i name="e_wo_entrp">   -256.62372595 </i>
    <i name="e_0_energy">   -256.62372595 </i>
   </energy>
  </scstep>
  <scstep>
   <time name="diag">    0.18    0.18</time>
   <time name="diis">    0.97    0.97</time>
   <time name="orth">    0.03    0.03</time>
   <time name="total">    1.31    1.31</time>
   <energy>
    <i name="e_fr_energy">   -256.62376143 </i>
    <i name="e_wo_entrp">   -256.62376143 </i>
    <i name="e_0_energy">   -256.62376143 </i>
   </energy>
  </scstep>
  <scstep>
   <time name="diag">    0.18    0.18</time>
   <time name="diis">    1.02    1.02</time>
   <time name="orth">    0.04    0.04</time>
   <time name="total">    1.39    1.39</time>
   <energy>
    <i name="e_fr_energy">   -256.62378319 </i>
    <i name="e_wo_entrp">   -256.62378319 </i>
    <i name="e_0_energy">   -256.62378319 </i>
   </energy>
  </scstep>
  <scstep>
   <time name="diag">    0.20    0.20</time>
   <time name="diis">    0.99    0.99</time>
   <time name="orth">    0.04    0.04</time>
   <time name="total">    1.37    1.37</time>
   <energy>
    <i name="e_fr_energy">   -256.62379894 </i>
    <i name="e_wo_entrp">   -256.62379894 </i>
    <i name="e_0_energy">   -256.62379894 </i>
   </energy>
  </scstep>
  <scstep>
   <time name="diag">    0.18    0.18</time>
   <time name="diis">    0.85    0.85</time>
   <time name="orth">    0.03    0.03</time>
   <time name="total">    1.19    1.19</time>
   <energy>
    <i name="e_fr_energy">   -256.62380769 </i>
    <i name="e_wo_entrp">   -256.62380769 </i>
    <i name="e_0_energy">   -256.62380769 </i>
   </energy>
  </scstep>
  <scstep>
   <time name="diag">    0.18    0.18</time>
   <time name="diis">    0.87    0.87</time>
   <time name="orth">    0.03    0.03</time>
   <time name="total">    1.22    1.22</time>
   <energy>
    <i name="e_fr_energy">   -256.62381674 </i>
    <i name="e_wo_entrp">   -256.62381674 </i>
    <i name="e_0_energy">   -256.62381674 </i>
   </energy>
  </scstep>
  <scstep>
   <time name="diag">    0.18    0.18</time>
   <time name="diis">    0.87    0.87</time>
   <time name="orth">    0.03    0.03</time>
   <time name="total">    1.22    1.21</time>
   <energy>
    <i name="e_fr_energy">   -256.62382371 </i>
    <i name="e_wo_entrp">   -256.62382371 </i>
    <i name="e_0_energy">   -256.62382371 </i>
   </energy>
  </scstep>
  <scstep>
   <time name="diag">    0.18    0.18</time>
   <time name="diis">    0.82    0.81</time>
   <time name="orth">    0.03    0.03</time>
   <time name="total">    1.16    1.16</time>
   <energy>
    <i name="e_fr_energy">   -256.62382873 </i>
    <i name="e_wo_entrp">   -256.62382873 </i>
    <i name="e_0_energy">   -256.62382873 </i>
   </energy>
  </scstep>
  <scstep>
   <time name="diag">    0.18    0.18</time>
   <time name="diis">    0.74    0.74</time>
   <time name="orth">    0.03    0.03</time>
   <time name="total">    1.08    1.08</time>
   <energy>
    <i name="e_fr_energy">   -256.62383168 </i>
    <i name="e_wo_entrp">   -256.62383168 </i>
    <i name="e_0_energy">   -256.62383168 </i>
   </energy>
  </scstep>
  <scstep>
   <time name="diag">    0.18    0.18</time>
   <time name="diis">    0.69    0.69</time>
   <time name="orth">    0.03    0.03</time>
   <time name="total">    1.03    1.03</time>
   <energy>
    <i name="e_fr_energy">   -256.62383367 </i>
    <i name="e_wo_entrp">   -256.62383367 </i>
    <i name="e_0_energy">   -256.62383367 </i>
   </energy>
  </scstep>
  <scstep>
   <time name="diag">    0.19    0.19</time>
   <time name="diis">    0.78    0.78</time>
   <time name="orth">    0.03    0.03</time>
   <time name="total">    1.14    1.13</time>
   <energy>
    <i name="e_fr_energy">   -256.62383510 </i>
    <i name="e_wo_entrp">   -256.62383510 </i>
    <i name="e_0_energy">   -256.62383510 </i>
   </energy>
  </scstep>
  <scstep>
   <time name="diag">    0.18    0.18</time>
   <time name="diis">    0.77    0.77</time>
   <time name="orth">    0.03    0.03</time>
   <time name="total">    1.12    1.12</time>
   <energy>
    <i name="e_fr_energy">   -256.62383618 </i>
    <i name="e_wo_entrp">   -256.62383618 </i>
    <i name="e_0_energy">   -256.62383618 </i>
   </energy>
  </scstep>
  <scstep>
   <time name="diag">    0.20    0.20</time>
   <time name="diis">    0.72    0.72</time>
   <time name="orth">    0.03    0.03</time>
   <time name="total">    1.04    1.04</time>
   <energy>
    <i name="alphaZ">    256.70245505 </i>
    <i name="ewald">  -9896.36095581 </i>
    <i name="hartreedc">  -3546.32671103 </i>
    <i name="XCdc">    806.14796163 </i>
    <i name="pawpsdc">  22928.32560955 </i>
    <i name="pawaedc"> -23284.68739900 </i>
    <i name="eentropy">     -0.00000000 </i>
    <i name="bandstr">  -3452.92017216 </i>
    <i name="atom">  15932.49537490 </i>
    <i name="e_fr_energy">   -256.62383687 </i>
    <i name="e_wo_entrp">   -256.62383687 </i>
    <i name="e_0_energy">   -256.62383687 </i>
   </energy>
  </scstep>
  <structure>
   <crystal>
    <varray name="basis" >
     <v>      10.25000000       0.00000000       0.00000000 </v>
     <v>       0.00000000      10.25000000       0.00000000 </v>
     <v>       0.00000000       0.00000000      12.35000000 </v>
    </varray>
    <i name="volume">   1297.52187500 </i>
    <varray name="rec_basis" >
     <v>       0.09756098       0.00000000       0.00000000 </v>
     <v>       0.00000000       0.09756098       0.00000000 </v>
     <v>       0.00000000       0.00000000       0.08097166 </v>
    </varray>
   </crystal>
   <varray name="positions" >
    <v>       0.63914732       0.89129366       0.00869166 </v>
    <v>       0.72604976       0.57348293       0.61057247 </v>
    <v>       0.22104293       0.17220390       0.02570453 </v>
    <v>       0.16054634       0.70189171       0.20407935 </v>
    <v>       0.28744683       0.19643317       0.32784291 </v>
    <v>       0.20559610       0.05272322       0.66226235 </v>
    <v>       0.73905951       0.56402537       0.21632794 </v>
    <v>       0.50840585       0.08027727       0.30240972 </v>
    <v>       0.98411707       0.92893756       0.58824858 </v>
    <v>       0.92978927       0.38964683       0.23326154 </v>
    <v>       0.43787902       0.97172878       0.52640810 </v>
    <v>       0.89302537       0.59144976       0.01420883 </v>
    <v>       0.00636619       0.35925268       0.73613360 </v>
    <v>       0.29856976       0.52140878       0.59958704 </v>
    <v>       0.59976780       0.23901366       0.98769231 </v>
    <v>       0.84082244       0.19343805       0.83217004 </v>
    <v>       0.62000000       0.54175805       0.99106883 </v>
    <v>       0.44678244       0.40444390       0.43612065 </v>
    <v>       0.48191512       0.65248098       0.15293117 </v>
    <v>       0.20839610       0.73927902       0.86379757 </v>
    <v>       0.68817171       0.24621073       0.22142186 </v>
    <v>       0.97490244       0.69611707       0.72543158 </v>
    <v>       0.02590449       0.36772488       0.45020081 </v>
    <v>       0.90608976       0.21611024       0.03983190 </v>
    <v>       0.71419805       0.13061659       0.45073603 </v>
    <v>       0.54672780       0.63582439       0.77620972 </v>
    <v>       0.62543512       0.83284195       0.24400405 </v>
    <v>       0.70778634       0.04742068       0.77054089 </v>
    <v>       0.60007902       0.27831024       0.60927854 </v>
    <v>       0.89706341       0.87465854       0.02494842 </v>
    <v>       0.29653756       0.60729854       0.33825668 </v>
    <v>       0.28041659       0.47640683       0.88577328 </v>
    <v>       0.09477971       0.43108780       0.98425101 </v>
    <v>       0.19625073       0.71395220       0.48670202 </v>
    <v>       0.97931707       0.62123024       0.45617814 </v>
    <v>       0.36751512       0.10789463       0.80393522 </v>
    <v>       0.38227610       0.88986244       0.22254413 </v>
    <v>       0.43818049       0.91603024       0.82918219 </v>
    <v>       0.19952488       0.90830634       0.48624939 </v>
    <v>       0.84793756       0.73754927       0.54334899 </v>
    <v>       0.02612341       0.19177854       0.58904453 </v>
    <v>       0.50425561       0.61526732       0.33516194 </v>
    <v>       0.39336195       0.62022829       0.95204049 </v>
    <v>       0.18567610       0.38351902       0.13707368 </v>
    <v>       0.18315415       0.55935122       0.74354089 </v>
    <v>       0.77123122       0.36980000       0.07601304 </v>
    <v>       0.76971610       0.55876390       0.81620243 </v>
    <v>       0.07510156       0.24391902       0.89979757 </v>
    <v>       0.95066244       0.64856195       0.29106235 </v>
    <v>       0.07973532       0.21638829       0.18486964 </v>
    <v>       0.78543024       0.05300517       0.95821862 </v>
    <v>       0.83781561       0.11875707       0.60612551 </v>
    <v>       0.47818927       0.18579512       0.46366154 </v>
    <v>       0.69243707       0.72294537       0.08812389 </v>
    <v>       0.80126049       0.39707415       0.73331012 </v>
    <v>       0.44967512       0.18136000       0.14405101 </v>
    <v>       0.53679610       0.22710537       0.80962348 </v>
    <v>       0.55724585       0.85242146       0.69178543 </v>
    <v>       0.41365951       0.00627303       0.07861992 </v>
    <v>       0.23987024       0.43376000       0.41214575 </v>
    <v>       0.52696878       0.49153268       0.60860729 </v>
    <v>       0.79449463       0.33513073       0.37663968 </v>
    <v>       0.08869483       0.89876390       0.75721862 </v>
    <v>       0.75070732       0.03022712       0.29053846 </v>
    <v>       0.07395356       0.75173073       0.02675951 </v>
   </varray>
  </structure>
  <varray name="forces" >
   <v>      -0.73865191       1.48581855      -0.85800752 </v>
   <v>       0.28994950      -0.29225382       0.22560077 </v>
   <v>       0.42788990      -0.27864319       0.30732888 </v>
   <v>      -0.36981392       0.33829147      -0.31300761 </v>
   <v>      -0.20883621       0.11160150      -0.03499765 </v>
   <v>      -0.23937601      -0.03069014      -0.14601619 </v>
   <v>       0.12122066      -0.24441905       0.06770294 </v>
   <v>       0.37959031      -0.55950802       0.05459867 </v>
   <v>      -0.14616689       0.16583493      -0.20192497 </v>
   <v>       0.01138025       0.11537373      -0.28376762 </v>
   <v>      -0.11216500      -0.23054706       0.20978791 </v>
   <v>      -0.25130074      -0.38200691      -0.13599802 </v>
   <v>       1.34436963      -0.03713149      -0.23592269 </v>
   <v>       0.35314483       0.08503915      -0.60991031 </v>
   <v>       0.53029512      -0.33451910       0.44434808 </v>
   <v>       0.73075921       0.88974124      -0.13682516 </v>
   <v>       0.44051421      -0.35179815      -0.32899803 </v>
   <v>       1.13812072       0.07588899       0.04509514 </v>
   <v>      -0.46503805       0.39277214      -0.33978605 </v>
   <v>       0.11757452       0.46327428       0.02898910 </v>
   <v>       0.17618154      -0.17641717      -0.10991056 </v>
   <v>      -0.26604114      -0.10953044      -0.00910760 </v>
   <v>      -0.61671859      -0.05825347       0.35375330 </v>
   <v>       0.49332916      -0.71463532      -0.04595911 </v>
   <v>       0.08146214       0.14561920      -0.30083340 </v>
   <v>      -0.07935019      -0.07066267      -0.05199558 </v>
   <v>       0.07163354       0.25396313       0.26734503 </v>
   <v>      -0.66763278      -0.89044694      -0.11177221 </v>
   <v>       0.14880406      -0.00794158       0.58503487 </v>
   <v>      -0.30279536       0.29174275       0.11524817 </v>
   <v>      -0.29485607       0.78894169      -0.29297526 </v>
   <v>      -0.40179548      -1.65120367      -0.65019915 </v>
   <v>      -0.25248024      -0.35687199      -0.91753677 </v>
   <v>       0.02423637      -1.80899305       0.51870797 </v>
   <v>       0.98333437      -0.19099554       0.14064060 </v>
   <v>       1.10252010      -0.33338927       0.40622433 </v>
   <v>       0.29890306       0.10881764      -0.65461718 </v>
   <v>       0.23545988       0.02641693      -0.90243643 </v>
   <v>       0.18347767       1.49551843      -0.45857787 </v>
   <v>       0.65502532       0.48921691      -0.05281508 </v>
   <v>       0.56975901       0.58922626      -0.04338981 </v>
   <v>      -0.20076868      -0.34948131       0.70458127 </v>
   <v>       0.57261944       0.91986609       0.49032876 </v>
   <v>      -0.18850479      -0.12478812      -0.18400269 </v>
   <v>      -0.56237215      -0.16142548       1.15469727 </v>
   <v>      -0.86206287       1.55934241       0.64585984 </v>
   <v>      -0.29327888       2.48609681       1.32436879 </v>
   <v>      -0.07282182       1.06811147       0.27477959 </v>
   <v>      -0.26541473      -0.06639748      -0.62386411 </v>
   <v>       0.47691339       0.12765340       0.42462447 </v>
   <v>      -0.40457854      -0.69666180      -0.06990996 </v>
   <v>      -0.46073694      -0.37687129       0.70413675 </v>
   <v>      -0.04400832      -0.72104775      -0.02673076 </v>
   <v>       0.53611143      -0.98843257       0.48111085 </v>
   <v>      -0.63672695      -1.84476832      -1.13803561 </v>
   <v>       0.24391012       1.62480457       0.14784162 </v>
   <v>      -0.57780480      -0.18336750      -1.08949692 </v>
   <v>      -0.58305858       0.77661851       0.65648108 </v>
   <v>      -0.38783284      -1.57702307       0.35464634 </v>
   <v>      -0.32185767      -0.63188209       0.10190420 </v>
   <v>      -0.76787396       0.27384886      -0.00189864 </v>
   <v>       0.09197530       0.40106746       0.08862923 </v>
   <v>      -0.34645303      -0.17258676       0.30429412 </v>
   <v>      -0.60318333      -0.42370547      -0.30893666 </v>
   <v>       0.16189273      -0.12121145       0.04147324 </v>
  </varray>
  <varray name="stress" >
   <v>      -0.57149265      -7.42930602       1.71639144 </v>
   <v>      -7.42930614      23.28287406      -2.15182875 </v>
   <v>       1.71639158      -2.15182858       8.17235937 </v>
  </varray>
  <energy>
   <i name="e_fr_energy">   -256.62383687 </i>
   <i name="e_wo_entrp">   -256.62383687 </i>
   <i name="e_0_energy">     -0.00000000 </i>
  </energy>
  <time name="totalsc">   59.27   59.30</time>
  <eigenvalues>
   <array>
    <dimension dim="1">band</dimension>
    <dimension dim="2">kpoint</dimension>
    <dimension dim="3">spin</dimension>
    <field>eigene</field>
    <field>occ</field>
    <set>
     <set comment="spin 1">
      <set comment="kpoint 1">
       <r>  -44.3606    1.0000 </r>
       <r>  -43.8421    1.0000 </r>
       <r>  -43.8295    1.0000 </r>
       <r>  -43.8092    1.0000 </r>
       <r>  -43.7334    1.0000 </r>
       <r>  -43.6883    1.0000 </r>
       <r>  -43.6271    1.0000 </r>
       <r>  -43.6189    1.0000 </r>
       <r>  -43.6059    1.0000 </r>
       <r>  -43.5882    1.0000 </r>
       <r>  -43.5860    1.0000 </r>
       <r>  -43.5491    1.0000 </r>
       <r>  -43.5005    1.0000 </r>
       <r>  -43.4463    1.0000 </r>
       <r>  -43.4029    1.0000 </r>
       <r>  -43.3933    1.0000 </r>
       <r>  -43.3526    1.0000 </r>
       <r>  -43.3425    1.0000 </r>
       <r>  -43.3165    1.0000 </r>
       <r>  -43.2931    1.0000 </r>
       <r>  -43.2759    1.0000 </r>
       <r>  -43.2424    1.0000 </r>
       <r>  -43.2180    1.0000 </r>
       <r>  -43.1668    1.0000 </r>
       <r>  -43.1650    1.0000 </r>
       <r>  -43.0297    1.0000 </r>
       <r>  -42.8974    1.0000 </r>
       <r>  -42.8469    1.0000 </r>
       <r>  -42.7699    1.0000 </r>
       <r>  -42.3073    1.0000 </r>
       <r>  -13.8428    1.0000 </r>
       <r>  -13.6235    1.0000 </r>
       <r>  -13.3872    1.0000 </r>
       <r>  -13.3397    1.0000 </r>
       <r>  -13.2353    1.0000 </r>
       <r>  -12.8763    1.0000 </r>
       <r>  -12.8271    1.0000 </r>
       <r>  -12.6071    1.0000 </r>
       <r>  -12.5711    1.0000 </r>
       <r>  -12.4701    1.0000 </r>
       <r>  -12.2060    1.0000 </r>
       <r>  -11.9954    1.0000 </r>
       <r>  -11.7554    1.0000 </r>
       <r>  -11.5862    1.0000 </r>
       <r>  -11.2756    1.0000 </r>
       <r>  -11.0680    1.0000 </r>
       <r>  -10.6764    1.0000 </r>
       <r>  -10.4521    1.0000 </r>
       <r>  -10.4130    1.0000 </r>
       <r>  -10.0726    1.0000 </r>
       <r>   -9.5815    1.0000 </r>
       <r>   -9.4941    1.0000 </r>
       <r>   -9.4559    1.0000 </r>
       <r>   -9.2350    1.0000 </r>
       <r>   -8.9267    1.0000 </r>
       <r>   -8.5993    1.0000 </r>
       <r>   -8.1522    1.0000 </r>
       <r>   -8.0985    1.0000 </r>
       <r>   -7.9453    1.0000 </r>
       <r>   -7.7474    1.0000 </r>
       <r>   -7.6563    1.0000 </r>
       <r>   -7.5231    1.0000 </r>
       <r>   -6.6030    1.0000 </r>
       <r>   -6.0009    1.0000 </r>
       <r>   -5.4242    1.0000 </r>
       <r>   -3.6817    1.0000 </r>
       <r>   -3.5112    1.0000 </r>
       <r>   -3.4786    1.0000 </r>
       <r>   -3.2766    1.0000 </r>
       <r>   -3.1413    1.0000 </r>
       <r>   -3.0530    1.0000 </r>
       <r>   -3.0228    1.0000 </r>
       <r>   -2.9275    1.0000 </r>
       <r>   -2.7127    1.0000 </r>
       <r>   -2.6585    1.0000 </r>
       <r>   -2.5704    1.0000 </r>
       <r>   -2.5459    1.0000 </r>
       <r>   -2.5104    1.0000 </r>
       <r>   -2.4197    1.0000 </r>
       <r>   -2.3776    1.0000 </r>
       <r>   -2.2959    1.0000 </r>
       <r>   -2.2630    1.0000 </r>
       <r>   -2.1581    1.0000 </r>
       <r>   -2.0889    1.0000 </r>
       <r>   -2.0590    1.0000 </r>
       <r>   -1.9639    1.0000 </r>
       <r>   -1.9127    1.0000 </r>
       <r>   -1.8596    1.0000 </r>
       <r>   -1.8189    1.0000 </r>
       <r>   -1.7381    1.0000 </r>
       <r>   -1.7146    1.0000 </r>
       <r>   -1.6556    1.0000 </r>
       <r>   -1.5056    1.0000 </r>
       <r>   -1.4660    1.0000 </r>
       <r>   -1.4279    1.0000 </r>
       <r>   -1.3636    1.0000 </r>
       <r>   -1.3494    1.0000 </r>
       <r>   -1.2976    1.0000 </r>
       <r>   -1.2184    1.0000 </r>
       <r>   -1.1519    1.0000 </r>
       <r>   -1.0826    1.0000 </r>
       <r>   -1.0245    1.0000 </r>
       <r>   -0.9381    1.0000 </r>
       <r>   -0.8750    1.0000 </r>
       <r>   -0.8529    1.0000 </r>
       <r>   -0.7917    1.0000 </r>
       <r>   -0.7407    1.0000 </r>
       <r>   -0.7146    1.0000 </r>
       <r>   -0.6734    1.0000 </r>
       <r>   -0.6496    1.0000 </r>
       <r>   -0.5173    1.0000 </r>
       <r>   -0.4625    1.0000 </r>
       <r>   -0.4248    1.0000 </r>
       <r>   -0.3537    1.0000 </r>
       <r>   -0.3183    1.0000 </r>
       <r>   -0.2818    1.0000 </r>
       <r>   -0.1797    1.0000 </r>
       <r>   -0.1683    1.0000 </r>
       <r>   -0.0284    1.0000 </r>
       <r>   -0.0137    1.0000 </r>
       <r>    0.0337    1.0000 </r>
       <r>    0.0763    1.0000 </r>
       <r>    0.1185    1.0000 </r>
       <r>    0.1675    1.0000 </r>
       <r>    0.2336    1.0000 </r>
       <r>    0.2501    1.0000 </r>
       <r>    0.2546    1.0000 </r>
       <r>    0.3641    1.0000 </r>
       <r>    0.4599    1.0000 </r>
       <r>    0.5098    1.0000 </r>
       <r>    0.5460    1.0000 </r>
       <r>    0.5634    1.0000 </r>
       <r>    0.6609    1.0000 </r>
       <r>    0.7214    1.0000 </r>
       <r>    0.7744    1.0000 </r>
       <r>    0.8569    1.0000 </r>
       <r>    0.9208    1.0000 </r>
       <r>    0.9884    1.0000 </r>
       <r>    1.1385    1.0000 </r>
       <r>    1.1795    1.0000 </r>
       <r>    1.2203    1.0000 </r>
       <r>    1.4058    1.0000 </r>
       <r>    1.4512    1.0000 </r>
       <r>    1.5191    1.0000 </r>
       <r>    1.5825    1.0000 </r>
       <r>    1.6935    1.0000 </r>
       <r>    1.8000    1.0000 </r>
       <r>    1.8643    1.0000 </r>
       <r>    1.9303    1.0000 </r>
       <r>    2.0725    1.0000 </r>
       <r>    3.6456    0.0000 </r>
       <r>    3.7999    0.0000 </r>
       <r>    3.9784    0.0000 </r>
       <r>    4.2362    0.0000 </r>
       <r>    4.2629    0.0000 </r>
       <r>    4.3881    0.0000 </r>
       <r>    4.4686    0.0000 </r>
       <r>    4.6671    0.0000 </r>
       <r>    4.7729    0.0000 </r>
       <r>    4.8607    0.0000 </r>
       <r>    4.9832    0.0000 </r>
       <r>    5.0302    0.0000 </r>
       <r>    5.2778    0.0000 </r>
       <r>    5.3628    0.0000 </r>
       <r>    5.4168    0.0000 </r>
       <r>    5.4869    0.0000 </r>
       <r>    5.5948    0.0000 </r>
       <r>    5.7684    0.0000 </r>
       <r>    6.0061    0.0000 </r>
       <r>    6.1069    0.0000 </r>
       <r>    6.2301    0.0000 </r>
       <r>    6.3373    0.0000 </r>
       <r>    6.4210    0.0000 </r>
       <r>    6.4759    0.0000 </r>
       <r>    6.5355    0.0000 </r>
       <r>    6.6205    0.0000 </r>
       <r>    6.7348    0.0000 </r>
       <r>    6.7727    0.0000 </r>
       <r>    6.9115    0.0000 </r>
       <r>    7.0088    0.0000 </r>
       <r>    7.1164    0.0000 </r>
       <r>    7.1616    0.0000 </r>
       <r>    7.3185    0.0000 </r>
       <r>    7.6181    0.0000 </r>
      </set>
     </set>
    </set>
   </array>
  </eigenvalues>
  <separator name="orbital magnetization" >
   <v name="MAGDIPOLOUT">      0.00000000      0.00000000      0.00000000</v>
  </separator>
  <dos>
   <i name="efermi">      2.42671020 </i>
   <total>
    <array>
     <dimension dim="1">gridpoints</dimension>
     <dimension dim="2">spin</dimension>
     <field>energy</field>
     <field>total</field>
     <field>integrated</field>
     <set>
      <set comment="spin 1">
       <r>   -46.9595     0.0000     0.0000 </r>
       <r>   -46.7689     0.0000     0.0000 </r>
       <r>   -46.5783     0.0000     0.0000 </r>
       <r>   -46.3878     0.0000     0.0000 </r>
       <r>   -46.1972     0.0000     0.0000 </r>
       <r>   -46.0066     0.0000     0.0000 </r>
       <r>   -45.8160     0.0000     0.0000 </r>
       <r>   -45.6254     0.0000     0.0000 </r>
       <r>   -45.4348     0.0000     0.0000 </r>
       <r>   -45.2442     0.0000     0.0000 </r>
       <r>   -45.0536     0.0000     0.0000 </r>
       <r>   -44.8630     0.0000     0.0000 </r>
       <r>   -44.6725     0.0000     0.0000 </r>
       <r>   -44.4819     0.0032     0.0006 </r>
       <r>   -44.2913    10.2285     1.9500 </r>
       <r>   -44.1007     0.2622     2.0000 </r>
       <r>   -43.9101     0.4268     2.0813 </r>
       <r>   -43.7195    39.8919     9.6843 </r>
       <r>   -43.5289    73.1620    23.6281 </r>
       <r>   -43.3383    59.8861    35.0417 </r>
       <r>   -43.1477    71.8273    48.7312 </r>
       <r>   -42.9572    17.4285    52.0528 </r>
       <r>   -42.7666    26.2333    57.0526 </r>
       <r>   -42.5760     4.9710    58.0000 </r>
       <r>   -42.3854     0.1424    58.0271 </r>
       <r>   -42.1948    10.3437    59.9985 </r>
       <r>   -42.0042     0.0077    60.0000 </r>
       <r>   -41.8136     0.0000    60.0000 </r>
       <r>   -41.6230     0.0000    60.0000 </r>
       <r>   -41.4325     0.0000    60.0000 </r>
       <r>   -41.2419     0.0000    60.0000 </r>
       <r>   -41.0513     0.0000    60.0000 </r>
       <r>   -40.8607     0.0000    60.0000 </r>
       <r>   -40.6701     0.0000    60.0000 </r>
       <r>   -40.4795     0.0000    60.0000 </r>
       <r>   -40.2889     0.0000    60.0000 </r>
       <r>   -40.0983     0.0000    60.0000 </r>
       <r>   -39.9077     0.0000    60.0000 </r>
       <r>   -39.7172     0.0000    60.0000 </r>
       <r>   -39.5266     0.0000    60.0000 </r>
       <r>   -39.3360     0.0000    60.0000 </r>
       <r>   -39.1454     0.0000    60.0000 </r>
       <r>   -38.9548     0.0000    60.0000 </r>
       <r>   -38.7642     0.0000    60.0000 </r>
       <r>   -38.5736     0.0000    60.0000 </r>
       <r>   -38.3830     0.0000    60.0000 </r>
       <r>   -38.1924     0.0000    60.0000 </r>
       <r>   -38.0019     0.0000    60.0000 </r>
       <r>   -37.8113     0.0000    60.0000 </r>
       <r>   -37.6207     0.0000    60.0000 </r>
       <r>   -37.4301     0.0000    60.0000 </r>
       <r>   -37.2395     0.0000    60.0000 </r>
       <r>   -37.0489     0.0000    60.0000 </r>
       <r>   -36.8583     0.0000    60.0000 </r>
       <r>   -36.6677     0.0000    60.0000 </r>
       <r>   -36.4772     0.0000    60.0000 </r>
       <r>   -36.2866     0.0000    60.0000 </r>
       <r>   -36.0960     0.0000    60.0000 </r>
       <r>   -35.9054     0.0000    60.0000 </r>
       <r>   -35.7148     0.0000    60.0000 </r>
       <r>   -35.5242     0.0000    60.0000 </r>
       <r>   -35.3336     0.0000    60.0000 </r>
       <r>   -35.1430     0.0000    60.0000 </r>
       <r>   -34.9524     0.0000    60.0000 </r>
       <r>   -34.7619     0.0000    60.0000 </r>
       <r>   -34.5713     0.0000    60.0000 </r>
       <r>   -34.3807     0.0000    60.0000 </r>
       <r>   -34.1901     0.0000    60.0000 </r>
       <r>   -33.9995     0.0000    60.0000 </r>
       <r>   -33.8089     0.0000    60.0000 </r>
       <r>   -33.6183     0.0000    60.0000 </r>
       <r>   -33.4277     0.0000    60.0000 </r>
       <r>   -33.2372     0.0000    60.0000 </r>
       <r>   -33.0466     0.0000    60.0000 </r>
       <r>   -32.8560     0.0000    60.0000 </r>
       <r>   -32.6654     0.0000    60.0000 </r>
       <r>   -32.4748     0.0000    60.0000 </r>
       <r>   -32.2842     0.0000    60.0000 </r>
       <r>   -32.0936     0.0000    60.0000 </r>
       <r>   -31.9030     0.0000    60.0000 </r>
       <r>   -31.7124     0.0000    60.0000 </r>
       <r>   -31.5219     0.0000    60.0000 </r>
       <r>   -31.3313     0.0000    60.0000 </r>
       <r>   -31.1407     0.0000    60.0000 </r>
       <r>   -30.9501     0.0000    60.0000 </r>
       <r>   -30.7595     0.0000    60.0000 </r>
       <r>   -30.5689     0.0000    60.0000 </r>
       <r>   -30.3783     0.0000    60.0000 </r>
       <r>   -30.1877     0.0000    60.0000 </r>
       <r>   -29.9971     0.0000    60.0000 </r>
       <r>   -29.8066     0.0000    60.0000 </r>
       <r>   -29.6160     0.0000    60.0000 </r>
       <r>   -29.4254     0.0000    60.0000 </r>
       <r>   -29.2348     0.0000    60.0000 </r>
       <r>   -29.0442     0.0000    60.0000 </r>
       <r>   -28.8536     0.0000    60.0000 </r>
       <r>   -28.6630     0.0000    60.0000 </r>
       <r>   -28.4724     0.0000    60.0000 </r>
       <r>   -28.2819     0.0000    60.0000 </r>
       <r>   -28.0913     0.0000    60.0000 </r>
       <r>   -27.9007     0.0000    60.0000 </r>
       <r>   -27.7101     0.0000    60.0000 </r>
       <r>   -27.5195     0.0000    60.0000 </r>
       <r>   -27.3289     0.0000    60.0000 </r>
       <r>   -27.1383     0.0000    60.0000 </r>
       <r>   -26.9477     0.0000    60.0000 </r>
       <r>   -26.7571     0.0000    60.0000 </r>
       <r>   -26.5666     0.0000    60.0000 </r>
       <r>   -26.3760     0.0000    60.0000 </r>
       <r>   -26.1854     0.0000    60.0000 </r>
       <r>   -25.9948     0.0000    60.0000 </r>
       <r>   -25.8042     0.0000    60.0000 </r>
       <r>   -25.6136     0.0000    60.0000 </r>
       <r>   -25.4230     0.0000    60.0000 </r>
       <r>   -25.2324     0.0000    60.0000 </r>
       <r>   -25.0418     0.0000    60.0000 </r>
       <r>   -24.8513     0.0000    60.0000 </r>
       <r>   -24.6607     0.0000    60.0000 </r>
       <r>   -24.4701     0.0000    60.0000 </r>
       <r>   -24.2795     0.0000    60.0000 </r>
       <r>   -24.0889     0.0000    60.0000 </r>
       <r>   -23.8983     0.0000    60.0000 </r>
       <r>   -23.7077     0.0000    60.0000 </r>
       <r>   -23.5171     0.0000    60.0000 </r>
       <r>   -23.3266     0.0000    60.0000 </r>
       <r>   -23.1360     0.0000    60.0000 </r>
       <r>   -22.9454     0.0000    60.0000 </r>
       <r>   -22.7548     0.0000    60.0000 </r>
       <r>   -22.5642     0.0000    60.0000 </r>
       <r>   -22.3736     0.0000    60.0000 </r>
       <r>   -22.1830     0.0000    60.0000 </r>
       <r>   -21.9924     0.0000    60.0000 </r>
       <r>   -21.8018     0.0000    60.0000 </r>
       <r>   -21.6113     0.0000    60.0000 </r>
       <r>   -21.4207     0.0000    60.0000 </r>
       <r>   -21.2301     0.0000    60.0000 </r>
       <r>   -21.0395     0.0000    60.0000 </r>
       <r>   -20.8489     0.0000    60.0000 </r>
       <r>   -20.6583     0.0000    60.0000 </r>
       <r>   -20.4677     0.0000    60.0000 </r>
       <r>   -20.2771     0.0000    60.0000 </r>
       <r>   -20.0865     0.0000    60.0000 </r>
       <r>   -19.8960     0.0000    60.0000 </r>
       <r>   -19.7054     0.0000    60.0000 </r>
       <r>   -19.5148     0.0000    60.0000 </r>
       <r>   -19.3242     0.0000    60.0000 </r>
       <r>   -19.1336     0.0000    60.0000 </r>
       <r>   -18.9430     0.0000    60.0000 </r>
       <r>   -18.7524     0.0000    60.0000 </r>
       <r>   -18.5618     0.0000    60.0000 </r>
       <r>   -18.3713     0.0000    60.0000 </r>
       <r>   -18.1807     0.0000    60.0000 </r>
       <r>   -17.9901     0.0000    60.0000 </r>
       <r>   -17.7995     0.0000    60.0000 </r>
       <r>   -17.6089     0.0000    60.0000 </r>
       <r>   -17.4183     0.0000    60.0000 </r>
       <r>   -17.2277     0.0000    60.0000 </r>
       <r>   -17.0371     0.0000    60.0000 </r>
       <r>   -16.8465     0.0000    60.0000 </r>
       <r>   -16.6560     0.0000    60.0000 </r>
       <r>   -16.4654     0.0000    60.0000 </r>
       <r>   -16.2748     0.0000    60.0000 </r>
       <r>   -16.0842     0.0000    60.0000 </r>
       <r>   -15.8936     0.0000    60.0000 </r>
       <r>   -15.7030     0.0000    60.0000 </r>
       <r>   -15.5124     0.0000    60.0000 </r>
       <r>   -15.3218     0.0000    60.0000 </r>
       <r>   -15.1312     0.0000    60.0000 </r>
       <r>   -14.9407     0.0000    60.0000 </r>
       <r>   -14.7501     0.0000    60.0000 </r>
       <r>   -14.5595     0.0000    60.0000 </r>
       <r>   -14.3689     0.0000    60.0000 </r>
       <r>   -14.1783     0.0000    60.0000 </r>
       <r>   -13.9877     0.0002    60.0000 </r>
       <r>   -13.7971     9.4645    61.8039 </r>
       <r>   -13.6065     8.2046    63.3676 </r>
       <r>   -13.4160     5.6600    64.4463 </r>
       <r>   -13.2254    25.0503    69.2206 </r>
       <r>   -13.0348     4.0895    70.0000 </r>
       <r>   -12.8442    11.8801    72.2642 </r>
       <r>   -12.6536    10.2013    74.2085 </r>
       <r>   -12.4630    25.9569    79.1556 </r>
       <r>   -12.2724     4.7477    80.0604 </r>
       <r>   -12.0818    10.2504    82.0140 </r>
       <r>   -11.8912    10.4039    83.9969 </r>
       <r>   -11.7007     9.8780    85.8795 </r>
       <r>   -11.5101    10.9613    87.9686 </r>
       <r>   -11.3195     1.2898    88.2144 </r>
       <r>   -11.1289     9.8151    90.0851 </r>
       <r>   -10.9383    10.0462    91.9998 </r>
       <r>   -10.7477     0.2300    92.0436 </r>
       <r>   -10.5571    10.2771    94.0023 </r>
       <r>   -10.3665    19.9045    97.7958 </r>
       <r>   -10.1759     1.0893    98.0035 </r>
       <r>    -9.9854    10.4041    99.9864 </r>
       <r>    -9.7948     0.0716   100.0000 </r>
       <r>    -9.6042     2.7438   100.5229 </r>
       <r>    -9.4136    27.4023   105.7455 </r>
       <r>    -9.2230     7.9720   107.2649 </r>
       <r>    -9.0324     3.8719   108.0028 </r>
       <r>    -8.8418    10.3935   109.9837 </r>
       <r>    -8.6512     0.8307   110.1420 </r>
       <r>    -8.4607     9.7483   111.9999 </r>
       <r>    -8.2701     0.0050   112.0009 </r>
       <r>    -8.0795    17.6738   115.3693 </r>
       <r>    -7.8889    13.2241   117.8896 </r>
       <r>    -7.6983    11.4410   120.0702 </r>
       <r>    -7.5077    17.1408   123.3370 </r>
       <r>    -7.3171     3.4786   124.0000 </r>
       <r>    -7.1265     0.0000   124.0000 </r>
       <r>    -6.9359     0.0000   124.0000 </r>
       <r>    -6.7454     0.0003   124.0001 </r>
       <r>    -6.5548     9.5892   125.8276 </r>
       <r>    -6.3642     0.9044   126.0000 </r>
       <r>    -6.1736     0.0000   126.0000 </r>
       <r>    -5.9830     7.2773   127.3870 </r>
       <r>    -5.7924     3.2165   128.0000 </r>
       <r>    -5.6018     0.0000   128.0000 </r>
       <r>    -5.4112     6.7512   129.2867 </r>
       <r>    -5.2207     3.7426   130.0000 </r>
       <r>    -5.0301     0.0000   130.0000 </r>
       <r>    -4.8395     0.0000   130.0000 </r>
       <r>    -4.6489     0.0000   130.0000 </r>
       <r>    -4.4583     0.0000   130.0000 </r>
       <r>    -4.2677     0.0000   130.0000 </r>
       <r>    -4.0771     0.0000   130.0000 </r>
       <r>    -3.8865     0.0000   130.0000 </r>
       <r>    -3.6959     3.6089   130.6878 </r>
       <r>    -3.5054    15.1763   133.5802 </r>
       <r>    -3.3148    14.1697   136.2808 </r>
       <r>    -3.1242    16.4739   139.4205 </r>
       <r>    -2.9336    28.4923   144.8508 </r>
       <r>    -2.7430     8.1731   146.4085 </r>
       <r>    -2.5524    31.8308   152.4751 </r>
       <r>    -2.3618    35.8614   159.3099 </r>
       <r>    -2.1712    28.3954   164.7217 </r>
       <r>    -1.9806    31.1648   170.6614 </r>
       <r>    -1.7901    36.9881   177.7109 </r>
       <r>    -1.5995    32.4433   183.8942 </r>
       <r>    -1.4089    29.8885   189.5906 </r>
       <r>    -1.2183    39.0734   197.0375 </r>
       <r>    -1.0277    30.3262   202.8174 </r>
       <r>    -0.8371    33.8230   209.2636 </r>
       <r>    -0.6465    48.7762   218.5598 </r>
       <r>    -0.4559    25.6408   223.4467 </r>
       <r>    -0.2654    40.8521   231.2326 </r>
       <r>    -0.0748    26.4009   236.2643 </r>
       <r>     0.1158    44.7864   244.8001 </r>
       <r>     0.3064    47.2716   253.8095 </r>
       <r>     0.4970    25.3944   258.6494 </r>
       <r>     0.6876    38.0522   265.9017 </r>
       <r>     0.8782    30.3110   271.6786 </r>
       <r>     1.0688    22.8174   276.0273 </r>
       <r>     1.2594    29.7934   281.7056 </r>
       <r>     1.4499    16.2874   284.8098 </r>
       <r>     1.6405    27.4037   290.0326 </r>
       <r>     1.8311    20.6863   293.9752 </r>
       <r>     2.0217    21.8577   298.1410 </r>
       <r>     2.2123     9.7536   299.9999 </r>
       <r>     2.4029     0.0004   300.0000 </r>
       <r>     2.5935     0.0000   300.0000 </r>
       <r>     2.7841     0.0000   300.0000 </r>
       <r>     2.9747     0.0000   300.0000 </r>
       <r>     3.1652     0.0000   300.0000 </r>
       <r>     3.3558     0.0000   300.0000 </r>
       <r>     3.5464     0.0263   300.0050 </r>
       <r>     3.7370    10.8107   302.0654 </r>
       <r>     3.9276    10.9385   304.1502 </r>
       <r>     4.1182     9.7101   306.0008 </r>
       <r>     4.3088    19.8825   309.7902 </r>
       <r>     4.4994    20.0669   313.6147 </r>
       <r>     4.6899     9.8981   315.5012 </r>
       <r>     4.8805    20.5980   319.4269 </r>
       <r>     5.0711    22.6313   323.7402 </r>
       <r>     5.2617     4.7938   324.6538 </r>
       <r>     5.4523    28.0523   330.0003 </r>
       <r>     5.6429    20.0771   333.8267 </r>
       <r>     5.8335    11.0580   335.9343 </r>
       <r>     6.0241     7.7305   337.4076 </r>
       <r>     6.2147    17.0638   340.6598 </r>
       <r>     6.4052    20.9200   344.6469 </r>
       <r>     6.5958    30.1734   350.3976 </r>
       <r>     6.7864    24.9736   355.1573 </r>
       <r>     6.9770    16.5138   358.3046 </r>
       <r>     7.1676    24.5641   362.9862 </r>
       <r>     7.3582    14.4380   365.7380 </r>
       <r>     7.5488     1.6371   366.0500 </r>
       <r>     7.7394    10.2285   367.9994 </r>
[...]
        <r>  0.0001  0.0008  0.0010  0.0002  0.0000  0.0000  0.0000  0.0000  0.0000 </r>
        <r>  0.0000  0.0028  0.0001  0.0001  0.0000  0.0000  0.0000  0.0000  0.0000 </r>
        <r>  0.0001  0.0008  0.0002  0.0001  0.0000  0.0000  0.0000  0.0000  0.0000 </r>
        <r>  0.0001  0.0000  0.0000  0.0010  0.0000  0.0000  0.0000  0.0000  0.0000 </r>
        <r>  0.0012  0.0002  0.0001  0.0009  0.0000  0.0000  0.0000  0.0000  0.0000 </r>
        <r>  0.0008  0.0010  0.0017  0.0001  0.0000  0.0000  0.0000  0.0000  0.0000 </r>
        <r>  0.0011  0.0002  0.0011  0.0001  0.0000  0.0000  0.0000  0.0000  0.0000 </r>
        <r>  0.0002  0.0020  0.0002  0.0027  0.0000  0.0000  0.0000  0.0000  0.0000 </r>
        <r>  0.0003  0.0015  0.0004  0.0007  0.0000  0.0000  0.0000  0.0000  0.0000 </r>
        <r>  0.0005  0.0004  0.0000  0.0002  0.0000  0.0000  0.0000  0.0000  0.0000 </r>
        <r>  0.0003  0.0047  0.0002  0.0003  0.0000  0.0000  0.0000  0.0000  0.0000 </r>
        <r>  0.0003  0.0004  0.0023  0.0010  0.0000  0.0000  0.0000  0.0000  0.0000 </r>
        <r>  0.0004  0.0004  0.0002  0.0003  0.0000  0.0000  0.0000  0.0000  0.0000 </r>
        <r>  0.0008  0.0001  0.0001  0.0008  0.0000  0.0000  0.0000  0.0000  0.0000 </r>
        <r>  0.0020  0.0006  0.0007  0.0001  0.0000  0.0000  0.0000  0.0000  0.0000 </r>
        <r>  0.0001  0.0001  0.0001  0.0041  0.0000  0.0000  0.0000  0.0000  0.0000 </r>
        <r>  0.0001  0.0003  0.0006  0.0024  0.0000  0.0000  0.0000  0.0000  0.0000 </r>
        <r>  0.0000  0.0002  0.0000  0.0005  0.0000  0.0000  0.0000  0.0000  0.0000 </r>
        <r>  0.0008  0.0007  0.0000  0.0015  0.0000  0.0000  0.0000  0.0000  0.0000 </r>
        <r>  0.0024  0.0003  0.0001  0.0002  0.0000  0.0000  0.0000  0.0000  0.0000 </r>
        <r>  0.0001  0.0010  0.0000  0.0032  0.0000  0.0000  0.0000  0.0000  0.0000 </r>
        <r>  0.0003  0.0001  0.0002  0.0020  0.0000  0.0000  0.0000  0.0000  0.0000 </r>
        <r>  0.0007  0.0009  0.0002  0.0003  0.0000  0.0000  0.0000  0.0000  0.0000 </r>
        <r>  0.0001  0.0003  0.0000  0.0006  0.0000  0.0000  0.0000  0.0000  0.0000 </r>
        <r>  0.0023  0.0007  0.0029  0.0042  0.0000  0.0000  0.0000  0.0000  0.0000 </r>
        <r>  0.0004  0.0002  0.0002  0.0006  0.0000  0.0000  0.0000  0.0000  0.0000 </r>
        <r>  0.0001  0.0003  0.0009  0.0007  0.0000  0.0000  0.0000  0.0000  0.0000 </r>
        <r>  0.0011  0.0014  0.0001  0.0010  0.0000  0.0000  0.0000  0.0000  0.0000 </r>
        <r>  0.0005  0.0016  0.0005  0.0002  0.0000  0.0000  0.0000  0.0000  0.0000 </r>
        <r>  0.0010  0.0016  0.0008  0.0004  0.0000  0.0000  0.0000  0.0000  0.0000 </r>
        <r>  0.0008  0.0021  0.0002  0.0023  0.0000  0.0000  0.0000  0.0000  0.0000 </r>
        <r>  0.0001  0.0029  0.0003  0.0002  0.0000  0.0000  0.0000  0.0000  0.0000 </r>
        <r>  0.0003  0.0004  0.0011  0.0025  0.0000  0.0000  0.0000  0.0000  0.0000 </r>
        <r>  0.0003  0.0029  0.0009  0.0001  0.0000  0.0000  0.0000  0.0000  0.0000 </r>
        <r>  0.0055  0.0000  0.0005  0.0003  0.0000  0.0000  0.0000  0.0000  0.0000 </r>
        <r>  0.0027  0.0005  0.0005  0.0002  0.0000  0.0000  0.0000  0.0000  0.0000 </r>
        <r>  0.0004  0.0004  0.0002  0.0001  0.0000  0.0000  0.0000  0.0000  0.0000 </r>
        <r>  0.0001  0.0000  0.0023  0.0001  0.0000  0.0000  0.0000  0.0000  0.0000 </r>
        <r>  0.0023  0.0003  0.0001  0.0017  0.0000  0.0000  0.0000  0.0000  0.0000 </r>
       </set>
       <set comment="band 183">
        <r>  0.0004  0.0001  0.0005  0.0005  0.0000  0.0000  0.0000  0.0000  0.0000 </r>
        <r>  0.0027  0.0000  0.0008  0.0003  0.0000  0.0000  0.0000  0.0000  0.0000 </r>
        <r>  0.0003  0.0009  0.0009  0.0006  0.0000  0.0000  0.0000  0.0000  0.0000 </r>
        <r>  0.0001  0.0003  0.0006  0.0000  0.0000  0.0000  0.0000  0.0000  0.0000 </r>
        <r>  0.0002  0.0024  0.0000  0.0011  0.0000  0.0000  0.0000  0.0000  0.0000 </r>
        <r>  0.0006  0.0002  0.0003  0.0001  0.0000  0.0000  0.0000  0.0000  0.0000 </r>
        <r>  0.0005  0.0002  0.0000  0.0006  0.0000  0.0000  0.0000  0.0000  0.0000 </r>
        <r>  0.0003  0.0005  0.0003  0.0036  0.0000  0.0000  0.0000  0.0000  0.0000 </r>
        <r>  0.0019  0.0005  0.0015  0.0002  0.0000  0.0000  0.0000  0.0000  0.0000 </r>
        <r>  0.0003  0.0004  0.0001  0.0022  0.0000  0.0000  0.0000  0.0000  0.0000 </r>
        <r>  0.0000  0.0015  0.0000  0.0008  0.0000  0.0000  0.0000  0.0000  0.0000 </r>
        <r>  0.0002  0.0000  0.0009  0.0008  0.0000  0.0000  0.0000  0.0000  0.0000 </r>
        <r>  0.0008  0.0019  0.0002  0.0002  0.0000  0.0000  0.0000  0.0000  0.0000 </r>
        <r>  0.0000  0.0018  0.0003  0.0001  0.0000  0.0000  0.0000  0.0000  0.0000 </r>
        <r>  0.0005  0.0009  0.0005  0.0003  0.0000  0.0000  0.0000  0.0000  0.0000 </r>
        <r>  0.0024  0.0029  0.0025  0.0008  0.0000  0.0000  0.0000  0.0000  0.0000 </r>
        <r>  0.0000  0.0001  0.0000  0.0003  0.0000  0.0000  0.0000  0.0000  0.0000 </r>
        <r>  0.0003  0.0003  0.0038  0.0001  0.0000  0.0000  0.0000  0.0000  0.0000 </r>
        <r>  0.0007  0.0008  0.0007  0.0001  0.0000  0.0000  0.0000  0.0000  0.0000 </r>
        <r>  0.0002  0.0000  0.0001  0.0000  0.0000  0.0000  0.0000  0.0000  0.0000 </r>
        <r>  0.0001  0.0001  0.0001  0.0013  0.0000  0.0000  0.0000  0.0000  0.0000 </r>
        <r>  0.0005  0.0010  0.0025  0.0005  0.0000  0.0000  0.0000  0.0000  0.0000 </r>
        <r>  0.0004  0.0002  0.0005  0.0000  0.0000  0.0000  0.0000  0.0000  0.0000 </r>
        <r>  0.0000  0.0001  0.0005  0.0009  0.0000  0.0000  0.0000  0.0000  0.0000 </r>
        <r>  0.0002  0.0004  0.0002  0.0015  0.0000  0.0000  0.0000  0.0000  0.0000 </r>
        <r>  0.0004  0.0008  0.0002  0.0006  0.0000  0.0000  0.0000  0.0000  0.0000 </r>
        <r>  0.0000  0.0003  0.0016  0.0003  0.0000  0.0000  0.0000  0.0000  0.0000 </r>
        <r>  0.0010  0.0020  0.0000  0.0025  0.0000  0.0000  0.0000  0.0000  0.0000 </r>
        <r>  0.0007  0.0004  0.0006  0.0003  0.0000  0.0000  0.0000  0.0000  0.0000 </r>
        <r>  0.0011  0.0001  0.0004  0.0006  0.0000  0.0000  0.0000  0.0000  0.0000 </r>
        <r>  0.0006  0.0011  0.0003  0.0002  0.0000  0.0000  0.0000  0.0000  0.0000 </r>
        <r>  0.0005  0.0003  0.0009  0.0014  0.0000  0.0000  0.0000  0.0000  0.0000 </r>
        <r>  0.0009  0.0017  0.0054  0.0001  0.0000  0.0000  0.0000  0.0000  0.0000 </r>
        <r>  0.0007  0.0045  0.0009  0.0009  0.0000  0.0000  0.0000  0.0000  0.0000 </r>
        <r>  0.0008  0.0007  0.0007  0.0008  0.0000  0.0000  0.0000  0.0000  0.0000 </r>
        <r>  0.0001  0.0005  0.0001  0.0011  0.0000  0.0000  0.0000  0.0000  0.0000 </r>
        <r>  0.0003  0.0013  0.0002  0.0001  0.0000  0.0000  0.0000  0.0000  0.0000 </r>
        <r>  0.0003  0.0008  0.0001  0.0003  0.0000  0.0000  0.0000  0.0000  0.0000 </r>
        <r>  0.0001  0.0019  0.0010  0.0003  0.0000  0.0000  0.0000  0.0000  0.0000 </r>
        <r>  0.0009  0.0001  0.0004  0.0002  0.0000  0.0000  0.0000  0.0000  0.0000 </r>
        <r>  0.0004  0.0003  0.0002  0.0006  0.0000  0.0000  0.0000  0.0000  0.0000 </r>
        <r>  0.0001  0.0013  0.0000  0.0009  0.0000  0.0000  0.0000  0.0000  0.0000 </r>
        <r>  0.0001  0.0004  0.0014  0.0005  0.0000  0.0000  0.0000  0.0000  0.0000 </r>
        <r>  0.0002  0.0002  0.0003  0.0004  0.0000  0.0000  0.0000  0.0000  0.0000 </r>
        <r>  0.0018  0.0005  0.0003  0.0008  0.0000  0.0000  0.0000  0.0000  0.0000 </r>
        <r>  0.0022  0.0002  0.0019  0.0006  0.0000  0.0000  0.0000  0.0000  0.0000 </r>
        <r>  0.0001  0.0029  0.0013  0.0023  0.0000  0.0000  0.0000  0.0000  0.0000 </r>
        <r>  0.0004  0.0003  0.0016  0.0004  0.0000  0.0000  0.0000  0.0000  0.0000 </r>
        <r>  0.0004  0.0002  0.0011  0.0007  0.0000  0.0000  0.0000  0.0000  0.0000 </r>
        <r>  0.0005  0.0004  0.0001  0.0002  0.0000  0.0000  0.0000  0.0000  0.0000 </r>
        <r>  0.0018  0.0000  0.0009  0.0001  0.0000  0.0000  0.0000  0.0000  0.0000 </r>
        <r>  0.0016  0.0007  0.0009  0.0012  0.0000  0.0000  0.0000  0.0000  0.0000 </r>
        <r>  0.0001  0.0001  0.0011  0.0009  0.0000  0.0000  0.0000  0.0000  0.0000 </r>
        <r>  0.0030  0.0005  0.0005  0.0007  0.0000  0.0000  0.0000  0.0000  0.0000 </r>
        <r>  0.0015  0.0037  0.0019  0.0002  0.0000  0.0000  0.0000  0.0000  0.0000 </r>
        <r>  0.0007  0.0073  0.0010  0.0011  0.0000  0.0000  0.0000  0.0000  0.0000 </r>
        <r>  0.0005  0.0004  0.0001  0.0004  0.0000  0.0000  0.0000  0.0000  0.0000 </r>
        <r>  0.0002  0.0004  0.0004  0.0001  0.0000  0.0000  0.0000  0.0000  0.0000 </r>
        <r>  0.0018  0.0030  0.0015  0.0004  0.0000  0.0000  0.0000  0.0000  0.0000 </r>
        <r>  0.0001  0.0040  0.0039  0.0001  0.0000  0.0000  0.0000  0.0000  0.0000 </r>
        <r>  0.0016  0.0002  0.0046  0.0001  0.0000  0.0000  0.0000  0.0000  0.0000 </r>
        <r>  0.0008  0.0002  0.0002  0.0001  0.0000  0.0000  0.0000  0.0000  0.0000 </r>
        <r>  0.0001  0.0004  0.0006  0.0003  0.0000  0.0000  0.0000  0.0000  0.0000 </r>
        <r>  0.0001  0.0002  0.0005  0.0056  0.0000  0.0000  0.0000  0.0000  0.0000 </r>
        <r>  0.0004  0.0009  0.0004  0.0000  0.0000  0.0000  0.0000  0.0000  0.0000 </r>
       </set>
       <set comment="band 184">
        <r>  0.0004  0.0002  0.0003  0.0001  0.0000  0.0000  0.0000  0.0000  0.0000 </r>
        <r>  0.0004  0.0004  0.0007  0.0005  0.0000  0.0000  0.0000  0.0000  0.0000 </r>
        <r>  0.0012  0.0003  0.0012  0.0004  0.0000  0.0000  0.0000  0.0000  0.0000 </r>
        <r>  0.0004  0.0016  0.0002  0.0000  0.0000  0.0000  0.0000  0.0000  0.0000 </r>
        <r>  0.0006  0.0001  0.0016  0.0003  0.0000  0.0000  0.0000  0.0000  0.0000 </r>
        <r>  0.0001  0.0000  0.0001  0.0007  0.0000  0.0000  0.0000  0.0000  0.0000 </r>
        <r>  0.0011  0.0016  0.0003  0.0016  0.0000  0.0000  0.0000  0.0000  0.0000 </r>
        <r>  0.0002  0.0001  0.0011  0.0009  0.0000  0.0000  0.0000  0.0000  0.0000 </r>
        <r>  0.0000  0.0002  0.0008  0.0000  0.0000  0.0000  0.0000  0.0000  0.0000 </r>
        <r>  0.0009  0.0060  0.0007  0.0005  0.0000  0.0000  0.0000  0.0000  0.0000 </r>
        <r>  0.0000  0.0002  0.0001  0.0002  0.0000  0.0000  0.0000  0.0000  0.0000 </r>
        <r>  0.0007  0.0005  0.0001  0.0003  0.0000  0.0000  0.0000  0.0000  0.0000 </r>
        <r>  0.0009  0.0000  0.0000  0.0011  0.0000  0.0000  0.0000  0.0000  0.0000 </r>
        <r>  0.0001  0.0003  0.0007  0.0002  0.0000  0.0000  0.0000  0.0000  0.0000 </r>
        <r>  0.0002  0.0010  0.0001  0.0005  0.0000  0.0000  0.0000  0.0000  0.0000 </r>
        <r>  0.0025  0.0009  0.0005  0.0012  0.0000  0.0000  0.0000  0.0000  0.0000 </r>
        <r>  0.0002  0.0021  0.0005  0.0002  0.0000  0.0000  0.0000  0.0000  0.0000 </r>
        <r>  0.0005  0.0006  0.0012  0.0002  0.0000  0.0000  0.0000  0.0000  0.0000 </r>
        <r>  0.0007  0.0009  0.0001  0.0014  0.0000  0.0000  0.0000  0.0000  0.0000 </r>
        <r>  0.0001  0.0002  0.0002  0.0007  0.0000  0.0000  0.0000  0.0000  0.0000 </r>
        <r>  0.0006  0.0018  0.0001  0.0014  0.0000  0.0000  0.0000  0.0000  0.0000 </r>
        <r>  0.0004  0.0013  0.0004  0.0006  0.0000  0.0000  0.0000  0.0000  0.0000 </r>
        <r>  0.0005  0.0006  0.0002  0.0001  0.0000  0.0000  0.0000  0.0000  0.0000 </r>
        <r>  0.0000  0.0001  0.0014  0.0003  0.0000  0.0000  0.0000  0.0000  0.0000 </r>
        <r>  0.0016  0.0021  0.0005  0.0014  0.0000  0.0000  0.0000  0.0000  0.0000 </r>
        <r>  0.0005  0.0008  0.0002  0.0008  0.0000  0.0000  0.0000  0.0000  0.0000 </r>
        <r>  0.0010  0.0012  0.0004  0.0005  0.0000  0.0000  0.0000  0.0000  0.0000 </r>
        <r>  0.0003  0.0033  0.0002  0.0016  0.0000  0.0000  0.0000  0.0000  0.0000 </r>
        <r>  0.0004  0.0000  0.0017  0.0033  0.0000  0.0000  0.0000  0.0000  0.0000 </r>
        <r>  0.0012  0.0001  0.0009  0.0006  0.0000  0.0000  0.0000  0.0000  0.0000 </r>
        <r>  0.0004  0.0000  0.0004  0.0006  0.0000  0.0000  0.0000  0.0000  0.0000 </r>
        <r>  0.0003  0.0003  0.0002  0.0000  0.0000  0.0000  0.0000  0.0000  0.0000 </r>
        <r>  0.0002  0.0001  0.0000  0.0001  0.0000  0.0000  0.0000  0.0000  0.0000 </r>
        <r>  0.0000  0.0006  0.0002  0.0027  0.0000  0.0000  0.0000  0.0000  0.0000 </r>
        <r>  0.0006  0.0015  0.0011  0.0037  0.0000  0.0000  0.0000  0.0000  0.0000 </r>
        <r>  0.0003  0.0010  0.0002  0.0001  0.0000  0.0000  0.0000  0.0000  0.0000 </r>
        <r>  0.0003  0.0000  0.0006  0.0009  0.0000  0.0000  0.0000  0.0000  0.0000 </r>
        <r>  0.0002  0.0001  0.0001  0.0004  0.0000  0.0000  0.0000  0.0000  0.0000 </r>
        <r>  0.0004  0.0011  0.0000  0.0012  0.0000  0.0000  0.0000  0.0000  0.0000 </r>
        <r>  0.0001  0.0027  0.0038  0.0003  0.0000  0.0000  0.0000  0.0000  0.0000 </r>
        <r>  0.0006  0.0006  0.0000  0.0005  0.0000  0.0000  0.0000  0.0000  0.0000 </r>
        <r>  0.0011  0.0004  0.0005  0.0032  0.0000  0.0000  0.0000  0.0000  0.0000 </r>
        <r>  0.0002  0.0018  0.0013  0.0002  0.0000  0.0000  0.0000  0.0000  0.0000 </r>
        <r>  0.0001  0.0008  0.0001  0.0006  0.0000  0.0000  0.0000  0.0000  0.0000 </r>
        <r>  0.0006  0.0003  0.0009  0.0006  0.0000  0.0000  0.0000  0.0000  0.0000 </r>
        <r>  0.0003  0.0020  0.0001  0.0002  0.0000  0.0000  0.0000  0.0000  0.0000 </r>
        <r>  0.0002  0.0003  0.0006  0.0001  0.0000  0.0000  0.0000  0.0000  0.0000 </r>
        <r>  0.0015  0.0000  0.0001  0.0001  0.0000  0.0000  0.0000  0.0000  0.0000 </r>
        <r>  0.0003  0.0007  0.0032  0.0013  0.0000  0.0000  0.0000  0.0000  0.0000 </r>
        <r>  0.0017  0.0002  0.0002  0.0022  0.0000  0.0000  0.0000  0.0000  0.0000 </r>
        <r>  0.0015  0.0003  0.0006  0.0003  0.0000  0.0000  0.0000  0.0000  0.0000 </r>
        <r>  0.0002  0.0006  0.0006  0.0014  0.0000  0.0000  0.0000  0.0000  0.0000 </r>
        <r>  0.0019  0.0013  0.0002  0.0021  0.0000  0.0000  0.0000  0.0000  0.0000 </r>
        <r>  0.0040  0.0003  0.0001  0.0008  0.0000  0.0000  0.0000  0.0000  0.0000 </r>
        <r>  0.0012  0.0000  0.0010  0.0011  0.0000  0.0000  0.0000  0.0000  0.0000 </r>
        <r>  0.0002  0.0001  0.0002  0.0008  0.0000  0.0000  0.0000  0.0000  0.0000 </r>
        <r>  0.0007  0.0010  0.0010  0.0039  0.0000  0.0000  0.0000  0.0000  0.0000 </r>
        <r>  0.0000  0.0002  0.0000  0.0022  0.0000  0.0000  0.0000  0.0000  0.0000 </r>
        <r>  0.0004  0.0005  0.0005  0.0002  0.0000  0.0000  0.0000  0.0000  0.0000 </r>
        <r>  0.0000  0.0003  0.0006  0.0007  0.0000  0.0000  0.0000  0.0000  0.0000 </r>
        <r>  0.0002  0.0002  0.0006  0.0026  0.0000  0.0000  0.0000  0.0000  0.0000 </r>
        <r>  0.0015  0.0006  0.0006  0.0004  0.0000  0.0000  0.0000  0.0000  0.0000 </r>
        <r>  0.0007  0.0003  0.0001  0.0036  0.0000  0.0000  0.0000  0.0000  0.0000 </r>
        <r>  0.0005  0.0007  0.0022  0.0014  0.0000  0.0000  0.0000  0.0000  0.0000 </r>
        <r>  0.0001  0.0000  0.0003  0.0007  0.0000  0.0000  0.0000  0.0000  0.0000 </r>
       </set>
      </set>
     </set>
    </set>
   </array>
  </projected>
 </calculation>
 <structure name="finalpos" >
  <crystal>
   <varray name="basis" >
    <v>      10.25000000       0.00000000       0.00000000 </v>
    <v>       0.00000000      10.25000000       0.00000000 </v>
    <v>       0.00000000       0.00000000      12.35000000 </v>
   </varray>
   <i name="volume">   1297.52187500 </i>
   <varray name="rec_basis" >
    <v>       0.09756098       0.00000000       0.00000000 </v>
    <v>       0.00000000       0.09756098       0.00000000 </v>
    <v>       0.00000000       0.00000000       0.08097166 </v>
   </varray>
  </crystal>
  <varray name="positions" >
   <v>       0.63914732       0.89129366       0.00869166 </v>
   <v>       0.72604976       0.57348293       0.61057247 </v>
   <v>       0.22104293       0.17220390       0.02570453 </v>
   <v>       0.16054634       0.70189171       0.20407935 </v>
   <v>       0.28744683       0.19643317       0.32784291 </v>
   <v>       0.20559610       0.05272322       0.66226235 </v>
   <v>       0.73905951       0.56402537       0.21632794 </v>
   <v>       0.50840585       0.08027727       0.30240972 </v>
   <v>       0.98411707       0.92893756       0.58824858 </v>
   <v>       0.92978927       0.38964683       0.23326154 </v>
   <v>       0.43787902       0.97172878       0.52640810 </v>
   <v>       0.89302537       0.59144976       0.01420883 </v>
   <v>       0.00636619       0.35925268       0.73613360 </v>
   <v>       0.29856976       0.52140878       0.59958704 </v>
   <v>       0.59976780       0.23901366       0.98769231 </v>
   <v>       0.84082244       0.19343805       0.83217004 </v>
   <v>       0.62000000       0.54175805       0.99106883 </v>
   <v>       0.44678244       0.40444390       0.43612065 </v>
   <v>       0.48191512       0.65248098       0.15293117 </v>
   <v>       0.20839610       0.73927902       0.86379757 </v>
   <v>       0.68817171       0.24621073       0.22142186 </v>
   <v>       0.97490244       0.69611707       0.72543158 </v>
   <v>       0.02590449       0.36772488       0.45020081 </v>
   <v>       0.90608976       0.21611024       0.03983190 </v>
   <v>       0.71419805       0.13061659       0.45073603 </v>
   <v>       0.54672780       0.63582439       0.77620972 </v>
   <v>       0.62543512       0.83284195       0.24400405 </v>
   <v>       0.70778634       0.04742068       0.77054089 </v>
   <v>       0.60007902       0.27831024       0.60927854 </v>
   <v>       0.89706341       0.87465854       0.02494842 </v>
   <v>       0.29653756       0.60729854       0.33825668 </v>
   <v>       0.28041659       0.47640683       0.88577328 </v>
   <v>       0.09477971       0.43108780       0.98425101 </v>
   <v>       0.19625073       0.71395220       0.48670202 </v>
   <v>       0.97931707       0.62123024       0.45617814 </v>
   <v>       0.36751512       0.10789463       0.80393522 </v>
   <v>       0.38227610       0.88986244       0.22254413 </v>
   <v>       0.43818049       0.91603024       0.82918219 </v>
   <v>       0.19952488       0.90830634       0.48624939 </v>
   <v>       0.84793756       0.73754927       0.54334899 </v>
   <v>       0.02612341       0.19177854       0.58904453 </v>
   <v>       0.50425561       0.61526732       0.33516194 </v>
   <v>       0.39336195       0.62022829       0.95204049 </v>
   <v>       0.18567610       0.38351902       0.13707368 </v>
   <v>       0.18315415       0.55935122       0.74354089 </v>
   <v>       0.77123122       0.36980000       0.07601304 </v>
   <v>       0.76971610       0.55876390       0.81620243 </v>
   <v>       0.07510156       0.24391902       0.89979757 </v>
   <v>       0.95066244       0.64856195       0.29106235 </v>
   <v>       0.07973532       0.21638829       0.18486964 </v>
   <v>       0.78543024       0.05300517       0.95821862 </v>
   <v>       0.83781561       0.11875707       0.60612551 </v>
   <v>       0.47818927       0.18579512       0.46366154 </v>
   <v>       0.69243707       0.72294537       0.08812389 </v>
   <v>       0.80126049       0.39707415       0.73331012 </v>
   <v>       0.44967512       0.18136000       0.14405101 </v>
   <v>       0.53679610       0.22710537       0.80962348 </v>
   <v>       0.55724585       0.85242146       0.69178543 </v>
   <v>       0.41365951       0.00627303       0.07861992 </v>
   <v>       0.23987024       0.43376000       0.41214575 </v>
   <v>       0.52696878       0.49153268       0.60860729 </v>
   <v>       0.79449463       0.33513073       0.37663968 </v>
   <v>       0.08869483       0.89876390       0.75721862 </v>
   <v>       0.75070732       0.03022712       0.29053846 </v>
   <v>       0.07395356       0.75173073       0.02675951 </v>
  </varray>
 </structure>
</modeling>
