LPSC                                    
           1
    10.250000    0.000000    0.000000
     0.000000   10.250000    0.000000
     0.000000    0.000000   12.350000
   Li   P    S    Cl
  30   5  25   5
Direct configuration=     1
   0.63914732  0.89129366  0.00869166
   0.72604976  0.57348293  0.61057247
   0.22104293  0.17220390  0.02570453
   0.16054634  0.70189171  0.20407935
   0.28744683  0.19643317  0.32784291
   0.20559610  0.05272322  0.66226235
   0.73905951  0.56402537  0.21632794
   0.50840585  0.08027727  0.30240972
   0.98411707  0.92893756  0.58824858
   0.92978927  0.38964683  0.23326154
   0.43787902  0.97172878  0.52640810
   0.89302537  0.59144976  0.01420883
   0.00636619  0.35925268  0.73613360
   0.29856976  0.52140878  0.59958704
   0.59976780  0.23901366  0.98769231
   0.84082244  0.19343805  0.83217004
   0.62000000  0.54175805  0.99106883
   0.44678244  0.40444390  0.43612065
   0.48191512  0.65248098  0.15293117
   0.20839610  0.73927902  0.86379757
   0.68817171  0.24621073  0.22142186
   0.97490244  0.69611707  0.72543158
   0.02590449  0.36772488  0.45020081
   0.90608976  0.21611024  0.03983190
   0.71419805  0.13061659  0.45073603
   0.54672780  0.63582439  0.77620972
   0.62543512  0.83284195  0.24400405
   0.70778634  0.04742068  0.77054089
   0.60007902  0.27831024  0.60927854
   0.89706341  0.87465854  0.02494842
   0.29653756  0.60729854  0.33825668
   0.28041659  0.47640683  0.88577328
   0.09477971  0.43108780  0.98425101
   0.19625073  0.71395220  0.48670202
   0.97931707  0.62123024  0.45617814
   0.36751512  0.10789463  0.80393522
   0.38227610  0.88986244  0.22254413
   0.43818049  0.91603024  0.82918219
   0.19952488  0.90830634  0.48624939
   0.84793756  0.73754927  0.54334899
   0.02612341  0.19177854  0.58904453
   0.50425561  0.61526732  0.33516194
   0.39336195  0.62022829  0.95204049
   0.18567610  0.38351902  0.13707368
   0.18315415  0.55935122  0.74354089
   0.77123122  0.36980000  0.07601304
   0.76971610  0.55876390  0.81620243
   0.07510156  0.24391902  0.89979757
   0.95066244  0.64856195  0.29106235
   0.07973532  0.21638829  0.18486964
   0.78543024  0.05300517  0.95821862
   0.83781561  0.11875707  0.60612551
   0.47818927  0.18579512  0.46366154
   0.69243707  0.72294537  0.08812389
   0.80126049  0.39707415  0.73331012
   0.44967512  0.18136000  0.14405101
   0.53679610  0.22710537  0.80962348
   0.55724585  0.85242146  0.69178543
   0.41365951  0.00627303  0.07861992
   0.23987024  0.43376000  0.41214575
   0.52696878  0.49153268  0.60860729
   0.79449463  0.33513073  0.37663968
   0.08869483  0.89876390  0.75721862
   0.75070732  0.03022712  0.29053846
   0.07395356  0.75173073  0.02675951
