  65  65   1   0
  0.1996187E+02  0.1025000E-08  0.1025000E-08  0.1235000E-08  0.5000000E-15
  1.000000000000000E-004
  CAR 
 LPSC                                    
      9.96809323    -46.85852915  301      2.24914369      1.00000000
    -46.859  0.0000E+00  0.0000E+00
    -46.669  0.0000E+00  0.0000E+00
    -46.480  0.0000E+00  0.0000E+00
    -46.290  0.0000E+00  0.0000E+00
    -46.101  0.0000E+00  0.0000E+00
    -45.911  0.0000E+00  0.0000E+00
    -45.722  0.0000E+00  0.0000E+00
    -45.533  0.0000E+00  0.0000E+00
    -45.343  0.0000E+00  0.0000E+00
    -45.154  0.0000E+00  0.0000E+00
    -44.964  0.0000E+00  0.0000E+00
    -44.775  0.0000E+00  0.0000E+00
    -44.585  0.0000E+00  0.0000E+00
    -44.396  0.3437E-02  0.6510E-03
    -44.207  0.1299E+02  0.2462E+01
    -44.017  0.1528E+02  0.5357E+01
    -43.828  0.2340E+02  0.9789E+01
    -43.638  0.5691E+01  0.1087E+02
    -43.449  0.7162E+02  0.2443E+02
    -43.260  0.5954E+02  0.3571E+02
    -43.070  0.6209E+02  0.4747E+02
    -42.881  0.4495E+02  0.5598E+02
    -42.691  0.1063E+02  0.5800E+02
    -42.502  0.9911E-02  0.5800E+02
    -42.312  0.5423E+01  0.5903E+02
    -42.123  0.5135E+01  0.6000E+02
    -41.934  0.3682E-06  0.6000E+02
    -41.744  0.0000E+00  0.6000E+02
    -41.555  0.0000E+00  0.6000E+02
    -41.365  0.0000E+00  0.6000E+02
    -41.176  0.0000E+00  0.6000E+02
    -40.986  0.0000E+00  0.6000E+02
    -40.797  0.0000E+00  0.6000E+02
    -40.608  0.0000E+00  0.6000E+02
    -40.418  0.0000E+00  0.6000E+02
    -40.229  0.0000E+00  0.6000E+02
    -40.039  0.0000E+00  0.6000E+02
    -39.850  0.0000E+00  0.6000E+02
    -39.660  0.0000E+00  0.6000E+02
    -39.471  0.0000E+00  0.6000E+02
    -39.282  0.0000E+00  0.6000E+02
    -39.092  0.0000E+00  0.6000E+02
    -38.903  0.0000E+00  0.6000E+02
    -38.713  0.0000E+00  0.6000E+02
    -38.524  0.0000E+00  0.6000E+02
    -38.335  0.0000E+00  0.6000E+02
    -38.145  0.0000E+00  0.6000E+02
    -37.956  0.0000E+00  0.6000E+02
    -37.766  0.0000E+00  0.6000E+02
    -37.577  0.0000E+00  0.6000E+02
    -37.387  0.0000E+00  0.6000E+02
    -37.198  0.0000E+00  0.6000E+02
    -37.009  0.0000E+00  0.6000E+02
    -36.819  0.0000E+00  0.6000E+02
    -36.630  0.0000E+00  0.6000E+02
    -36.440  0.0000E+00  0.6000E+02
    -36.251  0.0000E+00  0.6000E+02
    -36.061  0.0000E+00  0.6000E+02
    -35.872  0.0000E+00  0.6000E+02
    -35.683  0.0000E+00  0.6000E+02
    -35.493  0.0000E+00  0.6000E+02
    -35.304  0.0000E+00  0.6000E+02
    -35.114  0.0000E+00  0.6000E+02
    -34.925  0.0000E+00  0.6000E+02
    -34.736  0.0000E+00  0.6000E+02
    -34.546  0.0000E+00  0.6000E+02
    -34.357  0.0000E+00  0.6000E+02
    -34.167  0.0000E+00  0.6000E+02
    -33.978  0.0000E+00  0.6000E+02
    -33.788  0.0000E+00  0.6000E+02
    -33.599  0.0000E+00  0.6000E+02
    -33.410  0.0000E+00  0.6000E+02
    -33.220  0.0000E+00  0.6000E+02
    -33.031  0.0000E+00  0.6000E+02
    -32.841  0.0000E+00  0.6000E+02
    -32.652  0.0000E+00  0.6000E+02
    -32.462  0.0000E+00  0.6000E+02
    -32.273  0.0000E+00  0.6000E+02
    -32.084  0.0000E+00  0.6000E+02
    -31.894  0.0000E+00  0.6000E+02
    -31.705  0.0000E+00  0.6000E+02
    -31.515  0.0000E+00  0.6000E+02
    -31.326  0.0000E+00  0.6000E+02
    -31.136  0.0000E+00  0.6000E+02
    -30.947  0.0000E+00  0.6000E+02
    -30.758  0.0000E+00  0.6000E+02
    -30.568  0.0000E+00  0.6000E+02
    -30.379  0.0000E+00  0.6000E+02
    -30.189  0.0000E+00  0.6000E+02
    -30.000  0.0000E+00  0.6000E+02
    -29.811  0.0000E+00  0.6000E+02
    -29.621  0.0000E+00  0.6000E+02
    -29.432  0.0000E+00  0.6000E+02
    -29.242  0.0000E+00  0.6000E+02
    -29.053  0.0000E+00  0.6000E+02
    -28.863  0.0000E+00  0.6000E+02
    -28.674  0.0000E+00  0.6000E+02
    -28.485  0.0000E+00  0.6000E+02
    -28.295  0.0000E+00  0.6000E+02
    -28.106  0.0000E+00  0.6000E+02
    -27.916  0.0000E+00  0.6000E+02
    -27.727  0.0000E+00  0.6000E+02
    -27.537  0.0000E+00  0.6000E+02
    -27.348  0.0000E+00  0.6000E+02
    -27.159  0.0000E+00  0.6000E+02
    -26.969  0.0000E+00  0.6000E+02
    -26.780  0.0000E+00  0.6000E+02
    -26.590  0.0000E+00  0.6000E+02
    -26.401  0.0000E+00  0.6000E+02
    -26.212  0.0000E+00  0.6000E+02
    -26.022  0.0000E+00  0.6000E+02
    -25.833  0.0000E+00  0.6000E+02
    -25.643  0.0000E+00  0.6000E+02
    -25.454  0.0000E+00  0.6000E+02
    -25.264  0.0000E+00  0.6000E+02
    -25.075  0.0000E+00  0.6000E+02
    -24.886  0.0000E+00  0.6000E+02
    -24.696  0.0000E+00  0.6000E+02
    -24.507  0.0000E+00  0.6000E+02
    -24.317  0.0000E+00  0.6000E+02
    -24.128  0.0000E+00  0.6000E+02
    -23.938  0.0000E+00  0.6000E+02
    -23.749  0.0000E+00  0.6000E+02
    -23.560  0.0000E+00  0.6000E+02
    -23.370  0.0000E+00  0.6000E+02
    -23.181  0.0000E+00  0.6000E+02
    -22.991  0.0000E+00  0.6000E+02
    -22.802  0.0000E+00  0.6000E+02
    -22.613  0.0000E+00  0.6000E+02
    -22.423  0.0000E+00  0.6000E+02
    -22.234  0.0000E+00  0.6000E+02
    -22.044  0.0000E+00  0.6000E+02
    -21.855  0.0000E+00  0.6000E+02
    -21.665  0.0000E+00  0.6000E+02
    -21.476  0.0000E+00  0.6000E+02
    -21.287  0.0000E+00  0.6000E+02
    -21.097  0.0000E+00  0.6000E+02
    -20.908  0.0000E+00  0.6000E+02
    -20.718  0.0000E+00  0.6000E+02
    -20.529  0.0000E+00  0.6000E+02
    -20.339  0.0000E+00  0.6000E+02
    -20.150  0.0000E+00  0.6000E+02
    -19.961  0.0000E+00  0.6000E+02
    -19.771  0.0000E+00  0.6000E+02
    -19.582  0.0000E+00  0.6000E+02
    -19.392  0.0000E+00  0.6000E+02
    -19.203  0.0000E+00  0.6000E+02
    -19.013  0.0000E+00  0.6000E+02
    -18.824  0.0000E+00  0.6000E+02
    -18.635  0.0000E+00  0.6000E+02
    -18.445  0.0000E+00  0.6000E+02
    -18.256  0.0000E+00  0.6000E+02
    -18.066  0.0000E+00  0.6000E+02
    -17.877  0.0000E+00  0.6000E+02
    -17.688  0.0000E+00  0.6000E+02
    -17.498  0.0000E+00  0.6000E+02
    -17.309  0.0000E+00  0.6000E+02
    -17.119  0.0000E+00  0.6000E+02
    -16.930  0.0000E+00  0.6000E+02
    -16.740  0.0000E+00  0.6000E+02
    -16.551  0.0000E+00  0.6000E+02
    -16.362  0.0000E+00  0.6000E+02
    -16.172  0.0000E+00  0.6000E+02
    -15.983  0.0000E+00  0.6000E+02
    -15.793  0.0000E+00  0.6000E+02
    -15.604  0.0000E+00  0.6000E+02
    -15.414  0.0000E+00  0.6000E+02
    -15.225  0.0000E+00  0.6000E+02
    -15.036  0.0000E+00  0.6000E+02
    -14.846  0.0000E+00  0.6000E+02
    -14.657  0.0000E+00  0.6000E+02
    -14.467  0.0000E+00  0.6000E+02
    -14.278  0.2223E-03  0.6000E+02
    -14.089  0.9466E+01  0.6179E+02
    -13.899  0.1092E+01  0.6200E+02
    -13.710  0.2835E-11  0.6200E+02
    -13.520  0.3340E+00  0.6206E+02
    -13.331  0.2557E+02  0.6691E+02
    -13.141  0.1635E+02  0.7000E+02
    -12.952  0.1047E+02  0.7199E+02
    -12.763  0.4919E+01  0.7292E+02
    -12.573  0.1619E+02  0.7599E+02
    -12.384  0.7084E-01  0.7600E+02
    -12.194  0.2558E-02  0.7600E+02
    -12.005  0.1870E+02  0.7954E+02
    -11.815  0.1903E+02  0.8315E+02
    -11.626  0.1010E+02  0.8506E+02
    -11.437  0.1525E+02  0.8795E+02
    -11.247  0.1069E+01  0.8815E+02
    -11.058  0.9752E+01  0.9000E+02
    -10.868  0.4526E-03  0.9000E+02
    -10.679  0.5895E-05  0.9000E+02
    -10.489  0.7372E+01  0.9140E+02
    -10.300  0.1631E+02  0.9449E+02
    -10.111  0.1857E+02  0.9800E+02
     -9.921  0.1091E+02  0.1001E+03
     -9.732  0.1019E+02  0.1020E+03
     -9.542  0.1256E-01  0.1020E+03
     -9.353  0.1043E+02  0.1040E+03
     -9.164  0.4264E+00  0.1041E+03
     -8.974  0.1988E+02  0.1078E+03
     -8.785  0.4239E+01  0.1086E+03
     -8.595  0.7253E+01  0.1100E+03
     -8.406  0.1925E+02  0.1136E+03
     -8.216  0.1502E+02  0.1165E+03
     -8.027  0.7968E+01  0.1180E+03
     -7.838  0.9490E+01  0.1198E+03
     -7.648  0.7496E+01  0.1212E+03
     -7.459  0.1469E+02  0.1240E+03
     -7.269  0.1117E-02  0.1240E+03
     -7.080  0.0000E+00  0.1240E+03
     -6.890  0.9793E-07  0.1240E+03
     -6.701  0.4166E+01  0.1248E+03
     -6.512  0.6392E+01  0.1260E+03
     -6.322  0.1887E-05  0.1260E+03
     -6.133  0.1059E-02  0.1260E+03
     -5.943  0.1002E+02  0.1279E+03
     -5.754  0.5340E+00  0.1280E+03
     -5.565  0.1325E-01  0.1280E+03
     -5.375  0.1044E+02  0.1300E+03
     -5.186  0.1030E+00  0.1300E+03
     -4.996  0.0000E+00  0.1300E+03
     -4.807  0.0000E+00  0.1300E+03
     -4.617  0.0000E+00  0.1300E+03
     -4.428  0.0000E+00  0.1300E+03
     -4.239  0.1215E-11  0.1300E+03
     -4.049  0.2564E+00  0.1300E+03
     -3.860  0.1030E+02  0.1320E+03
     -3.670  0.4109E-02  0.1320E+03
     -3.481  0.9814E+01  0.1339E+03
     -3.291  0.1483E+02  0.1367E+03
     -3.102  0.2188E+02  0.1408E+03
     -2.913  0.9769E+01  0.1427E+03
     -2.723  0.1807E+02  0.1461E+03
     -2.534  0.2182E+02  0.1502E+03
     -2.344  0.4516E+02  0.1588E+03
     -2.155  0.2882E+02  0.1642E+03
     -1.965  0.3940E+02  0.1717E+03
     -1.776  0.3881E+02  0.1790E+03
     -1.587  0.2517E+02  0.1838E+03
     -1.397  0.3151E+02  0.1898E+03
     -1.208  0.3513E+02  0.1964E+03
     -1.018  0.3651E+02  0.2034E+03
     -0.829  0.1622E+02  0.2064E+03
     -0.640  0.4054E+02  0.2141E+03
     -0.450  0.3301E+02  0.2204E+03
     -0.261  0.3650E+02  0.2273E+03
     -0.071  0.3536E+02  0.2340E+03
      0.118  0.3420E+02  0.2404E+03
      0.308  0.4669E+02  0.2493E+03
      0.497  0.2822E+02  0.2546E+03
      0.686  0.4817E+02  0.2638E+03
      0.876  0.2743E+02  0.2690E+03
      1.065  0.3382E+02  0.2754E+03
      1.255  0.3178E+02  0.2814E+03
      1.444  0.3439E+02  0.2879E+03
      1.634  0.1188E+02  0.2901E+03
      1.823  0.2642E+02  0.2952E+03
      2.012  0.2304E+02  0.2995E+03
      2.202  0.2536E+01  0.3000E+03
      2.391  0.0000E+00  0.3000E+03
      2.581  0.0000E+00  0.3000E+03
      2.770  0.0000E+00  0.3000E+03
      2.959  0.0000E+00  0.3000E+03
      3.149  0.0000E+00  0.3000E+03
      3.338  0.2274E-11  0.3000E+03
      3.528  0.3117E+00  0.3001E+03
      3.717  0.1316E+02  0.3026E+03
      3.907  0.1780E+02  0.3059E+03
      4.096  0.2096E+02  0.3099E+03
      4.285  0.1278E+02  0.3123E+03
      4.475  0.2145E+02  0.3164E+03
      4.664  0.8593E+01  0.3180E+03
      4.854  0.1423E+02  0.3207E+03
      5.043  0.2326E+02  0.3251E+03
      5.233  0.9975E+01  0.3270E+03
      5.422  0.1592E+02  0.3300E+03
      5.611  0.2094E+02  0.3340E+03
      5.801  0.1278E+02  0.3364E+03
      5.990  0.1201E+02  0.3387E+03
      6.180  0.2305E+02  0.3430E+03
      6.369  0.1766E+02  0.3464E+03
      6.558  0.2018E+02  0.3502E+03
      6.748  0.2207E+02  0.3544E+03
      6.937  0.2439E+02  0.3590E+03
      7.127  0.1755E+02  0.3623E+03
      7.316  0.1004E+02  0.3642E+03
      7.506  0.1987E+02  0.3680E+03
      7.695  0.3731E-02  0.3680E+03
      7.884  0.0000E+00  0.3680E+03
      8.074  0.0000E+00  0.3680E+03
      8.263  0.0000E+00  0.3680E+03
      8.453  0.0000E+00  0.3680E+03
      8.642  0.0000E+00  0.3680E+03
      8.832  0.0000E+00  0.3680E+03
      9.021  0.0000E+00  0.3680E+03
      9.210  0.0000E+00  0.3680E+03
      9.400  0.0000E+00  0.3680E+03
      9.589  0.0000E+00  0.3680E+03
      9.779  0.0000E+00  0.3680E+03
      9.968  0.0000E+00  0.3680E+03
      9.96809323    -46.85852915  301      2.24914369      1.00000000
    -46.859  0.0000E+00  0.0000E+00  0.0000E+00  0.0000E+00  0.0000E+00  0.0000E+00  0.0000E+00  0.0000E+00  0.0000E+00
    -46.669  0.0000E+00  0.0000E+00  0.0000E+00  0.0000E+00  0.0000E+00  0.0000E+00  0.0000E+00  0.0000E+00  0.0000E+00
    -46.480  0.0000E+00  0.0000E+00  0.0000E+00  0.0000E+00  0.0000E+00  0.0000E+00  0.0000E+00  0.0000E+00  0.0000E+00
    -46.290  0.0000E+00  0.0000E+00  0.0000E+00  0.0000E+00  0.0000E+00  0.0000E+00  0.0000E+00  0.0000E+00  0.0000E+00
    -46.101  0.0000E+00  0.0000E+00  0.0000E+00  0.0000E+00  0.0000E+00  0.0000E+00  0.0000E+00  0.0000E+00  0.0000E+00
    -45.911  0.0000E+00  0.0000E+00  0.0000E+00  0.0000E+00  0.0000E+00  0.0000E+00  0.0000E+00  0.0000E+00  0.0000E+00
    -45.722  0.0000E+00  0.0000E+00  0.0000E+00  0.0000E+00  0.0000E+00  0.0000E+00  0.0000E+00  0.0000E+00  0.0000E+00
    -45.533  0.0000E+00  0.0000E+00  0.0000E+00  0.0000E+00  0.0000E+00  0.0000E+00  0.0000E+00  0.0000E+00  0.0000E+00
    -45.343  0.0000E+00  0.0000E+00  0.0000E+00  0.0000E+00  0.0000E+00  0.0000E+00  0.0000E+00  0.0000E+00  0.0000E+00
    -45.154  0.0000E+00  0.0000E+00  0.0000E+00  0.0000E+00  0.0000E+00  0.0000E+00  0.0000E+00  0.0000E+00  0.0000E+00
    -44.964  0.0000E+00  0.0000E+00  0.0000E+00  0.0000E+00  0.0000E+00  0.0000E+00  0.0000E+00  0.0000E+00  0.0000E+00
    -44.775  0.0000E+00  0.0000E+00  0.0000E+00  0.0000E+00  0.0000E+00  0.0000E+00  0.0000E+00  0.0000E+00  0.0000E+00
    -44.585  0.0000E+00  0.0000E+00  0.0000E+00  0.0000E+00  0.0000E+00  0.0000E+00  0.0000E+00  0.0000E+00  0.0000E+00
    -44.396  0.3736E-14  0.7902E-12  0.9774E-14  0.1195E-15  0.0000E+00  0.0000E+00  0.0000E+00  0.0000E+00  0.0000E+00
    -44.207  0.1927E-10  0.3408E-08  0.3278E-10  0.1969E-10  0.0000E+00  0.0000E+00  0.0000E+00  0.0000E+00  0.0000E+00
    -44.017  0.6965E-10  0.3452E-08  0.4179E-09  0.1036E-08  0.0000E+00  0.0000E+00  0.0000E+00  0.0000E+00  0.0000E+00
    -43.828  0.1562E-07  0.5160E-08  0.6717E-09  0.7047E-09  0.0000E+00  0.0000E+00  0.0000E+00  0.0000E+00  0.0000E+00
    -43.638  0.1489E-05  0.8519E-09  0.1356E-08  0.1773E-08  0.0000E+00  0.0000E+00  0.0000E+00  0.0000E+00  0.0000E+00
    -43.449  0.2352E-03  0.2581E-07  0.1366E-06  0.3203E-07  0.0000E+00  0.0000E+00  0.0000E+00  0.0000E+00  0.0000E+00
    -43.260  0.4990E-04  0.1001E-07  0.1452E-07  0.1793E-07  0.0000E+00  0.0000E+00  0.0000E+00  0.0000E+00  0.0000E+00
    -43.070  0.5851E-06  0.1048E-07  0.1634E-07  0.4581E-08  0.0000E+00  0.0000E+00  0.0000E+00  0.0000E+00  0.0000E+00
    -42.881  0.1281E+00  0.2293E-06  0.5559E-07  0.2803E-05  0.0000E+00  0.0000E+00  0.0000E+00  0.0000E+00  0.0000E+00
    -42.691  0.1030E+02  0.1659E-04  0.2988E-05  0.2254E-03  0.0000E+00  0.0000E+00  0.0000E+00  0.0000E+00  0.0000E+00
    -42.502  0.9801E-02  0.1578E-07  0.2842E-08  0.2144E-06  0.0000E+00  0.0000E+00  0.0000E+00  0.0000E+00  0.0000E+00
    -42.312  0.1238E-06  0.9512E-08  0.4210E-09  0.2211E-08  0.0000E+00  0.0000E+00  0.0000E+00  0.0000E+00  0.0000E+00
    -42.123  0.1172E-06  0.9007E-08  0.3986E-09  0.2094E-08  0.0000E+00  0.0000E+00  0.0000E+00  0.0000E+00  0.0000E+00
    -41.934  0.8406E-14  0.6458E-15  0.2858E-16  0.1501E-15  0.0000E+00  0.0000E+00  0.0000E+00  0.0000E+00  0.0000E+00
    -41.744  0.0000E+00  0.0000E+00  0.0000E+00  0.0000E+00  0.0000E+00  0.0000E+00  0.0000E+00  0.0000E+00  0.0000E+00
    -41.555  0.0000E+00  0.0000E+00  0.0000E+00  0.0000E+00  0.0000E+00  0.0000E+00  0.0000E+00  0.0000E+00  0.0000E+00
    -41.365  0.0000E+00  0.0000E+00  0.0000E+00  0.0000E+00  0.0000E+00  0.0000E+00  0.0000E+00  0.0000E+00  0.0000E+00
    -41.176  0.0000E+00  0.0000E+00  0.0000E+00  0.0000E+00  0.0000E+00  0.0000E+00  0.0000E+00  0.0000E+00  0.0000E+00
    -40.986  0.0000E+00  0.0000E+00  0.0000E+00  0.0000E+00  0.0000E+00  0.0000E+00  0.0000E+00  0.0000E+00  0.0000E+00
    -40.797  0.0000E+00  0.0000E+00  0.0000E+00  0.0000E+00  0.0000E+00  0.0000E+00  0.0000E+00  0.0000E+00  0.0000E+00
    -40.608  0.0000E+00  0.0000E+00  0.0000E+00  0.0000E+00  0.0000E+00  0.0000E+00  0.0000E+00  0.0000E+00  0.0000E+00
    -40.418  0.0000E+00  0.0000E+00  0.0000E+00  0.0000E+00  0.0000E+00  0.0000E+00  0.0000E+00  0.0000E+00  0.0000E+00
    -40.229  0.0000E+00  0.0000E+00  0.0000E+00  0.0000E+00  0.0000E+00  0.0000E+00  0.0000E+00  0.0000E+00  0.0000E+00
    -40.039  0.0000E+00  0.0000E+00  0.0000E+00  0.0000E+00  0.0000E+00  0.0000E+00  0.0000E+00  0.0000E+00  0.0000E+00
    -39.850  0.0000E+00  0.0000E+00  0.0000E+00  0.0000E+00  0.0000E+00  0.0000E+00  0.0000E+00  0.0000E+00  0.0000E+00
    -39.660  0.0000E+00  0.0000E+00  0.0000E+00  0.0000E+00  0.0000E+00  0.0000E+00  0.0000E+00  0.0000E+00  0.0000E+00
    -39.471  0.0000E+00  0.0000E+00  0.0000E+00  0.0000E+00  0.0000E+00  0.0000E+00  0.0000E+00  0.0000E+00  0.0000E+00
    -39.282  0.0000E+00  0.0000E+00  0.0000E+00  0.0000E+00  0.0000E+00  0.0000E+00  0.0000E+00  0.0000E+00  0.0000E+00
    -39.092  0.0000E+00  0.0000E+00  0.0000E+00  0.0000E+00  0.0000E+00  0.0000E+00  0.0000E+00  0.0000E+00  0.0000E+00
    -38.903  0.0000E+00  0.0000E+00  0.0000E+00  0.0000E+00  0.0000E+00  0.0000E+00  0.0000E+00  0.0000E+00  0.0000E+00
    -38.713  0.0000E+00  0.0000E+00  0.0000E+00  0.0000E+00  0.0000E+00  0.0000E+00  0.0000E+00  0.0000E+00  0.0000E+00
    -38.524  0.0000E+00  0.0000E+00  0.0000E+00  0.0000E+00  0.0000E+00  0.0000E+00  0.0000E+00  0.0000E+00  0.0000E+00
    -38.335  0.0000E+00  0.0000E+00  0.0000E+00  0.0000E+00  0.0000E+00  0.0000E+00  0.0000E+00  0.0000E+00  0.0000E+00
    -38.145  0.0000E+00  0.0000E+00  0.0000E+00  0.0000E+00  0.0000E+00  0.0000E+00  0.0000E+00  0.0000E+00  0.0000E+00
    -37.956  0.0000E+00  0.0000E+00  0.0000E+00  0.0000E+00  0.0000E+00  0.0000E+00  0.0000E+00  0.0000E+00  0.0000E+00
    -37.766  0.0000E+00  0.0000E+00  0.0000E+00  0.0000E+00  0.0000E+00  0.0000E+00  0.0000E+00  0.0000E+00  0.0000E+00
    -37.577  0.0000E+00  0.0000E+00  0.0000E+00  0.0000E+00  0.0000E+00  0.0000E+00  0.0000E+00  0.0000E+00  0.0000E+00
    -37.387  0.0000E+00  0.0000E+00  0.0000E+00  0.0000E+00  0.0000E+00  0.0000E+00  0.0000E+00  0.0000E+00  0.0000E+00
    -37.198  0.0000E+00  0.0000E+00  0.0000E+00  0.0000E+00  0.0000E+00  0.0000E+00  0.0000E+00  0.0000E+00  0.0000E+00
    -37.009  0.0000E+00  0.0000E+00  0.0000E+00  0.0000E+00  0.0000E+00  0.0000E+00  0.0000E+00  0.0000E+00  0.0000E+00
    -36.819  0.0000E+00  0.0000E+00  0.0000E+00  0.0000E+00  0.0000E+00  0.0000E+00  0.0000E+00  0.0000E+00  0.0000E+00
    -36.630  0.0000E+00  0.0000E+00  0.0000E+00  0.0000E+00  0.0000E+00  0.0000E+00  0.0000E+00  0.0000E+00  0.0000E+00
    -36.440  0.0000E+00  0.0000E+00  0.0000E+00  0.0000E+00  0.0000E+00  0.0000E+00  0.0000E+00  0.0000E+00  0.0000E+00
    -36.251  0.0000E+00  0.0000E+00  0.0000E+00  0.0000E+00  0.0000E+00  0.0000E+00  0.0000E+00  0.0000E+00  0.0000E+00
    -36.061  0.0000E+00  0.0000E+00  0.0000E+00  0.0000E+00  0.0000E+00  0.0000E+00  0.0000E+00  0.0000E+00  0.0000E+00
    -35.872  0.0000E+00  0.0000E+00  0.0000E+00  0.0000E+00  0.0000E+00  0.0000E+00  0.0000E+00  0.0000E+00  0.0000E+00
    -35.683  0.0000E+00  0.0000E+00  0.0000E+00  0.0000E+00  0.0000E+00  0.0000E+00  0.0000E+00  0.0000E+00  0.0000E+00
    -35.493  0.0000E+00  0.0000E+00  0.0000E+00  0.0000E+00  0.0000E+00  0.0000E+00  0.0000E+00  0.0000E+00  0.0000E+00
    -35.304  0.0000E+00  0.0000E+00  0.0000E+00  0.0000E+00  0.0000E+00  0.0000E+00  0.0000E+00  0.0000E+00  0.0000E+00
    -35.114  0.0000E+00  0.0000E+00  0.0000E+00  0.0000E+00  0.0000E+00  0.0000E+00  0.0000E+00  0.0000E+00  0.0000E+00
    -34.925  0.0000E+00  0.0000E+00  0.0000E+00  0.0000E+00  0.0000E+00  0.0000E+00  0.0000E+00  0.0000E+00  0.0000E+00
    -34.736  0.0000E+00  0.0000E+00  0.0000E+00  0.0000E+00  0.0000E+00  0.0000E+00  0.0000E+00  0.0000E+00  0.0000E+00
    -34.546  0.0000E+00  0.0000E+00  0.0000E+00  0.0000E+00  0.0000E+00  0.0000E+00  0.0000E+00  0.0000E+00  0.0000E+00
    -34.357  0.0000E+00  0.0000E+00  0.0000E+00  0.0000E+00  0.0000E+00  0.0000E+00  0.0000E+00  0.0000E+00  0.0000E+00
    -34.167  0.0000E+00  0.0000E+00  0.0000E+00  0.0000E+00  0.0000E+00  0.0000E+00  0.0000E+00  0.0000E+00  0.0000E+00
    -33.978  0.0000E+00  0.0000E+00  0.0000E+00  0.0000E+00  0.0000E+00  0.0000E+00  0.0000E+00  0.0000E+00  0.0000E+00
    -33.788  0.0000E+00  0.0000E+00  0.0000E+00  0.0000E+00  0.0000E+00  0.0000E+00  0.0000E+00  0.0000E+00  0.0000E+00
    -33.599  0.0000E+00  0.0000E+00  0.0000E+00  0.0000E+00  0.0000E+00  0.0000E+00  0.0000E+00  0.0000E+00  0.0000E+00
    -33.410  0.0000E+00  0.0000E+00  0.0000E+00  0.0000E+00  0.0000E+00  0.0000E+00  0.0000E+00  0.0000E+00  0.0000E+00
    -33.220  0.0000E+00  0.0000E+00  0.0000E+00  0.0000E+00  0.0000E+00  0.0000E+00  0.0000E+00  0.0000E+00  0.0000E+00
    -33.031  0.0000E+00  0.0000E+00  0.0000E+00  0.0000E+00  0.0000E+00  0.0000E+00  0.0000E+00  0.0000E+00  0.0000E+00
    -32.841  0.0000E+00  0.0000E+00  0.0000E+00  0.0000E+00  0.0000E+00  0.0000E+00  0.0000E+00  0.0000E+00  0.0000E+00
    -32.652  0.0000E+00  0.0000E+00  0.0000E+00  0.0000E+00  0.0000E+00  0.0000E+00  0.0000E+00  0.0000E+00  0.0000E+00
    -32.462  0.0000E+00  0.0000E+00  0.0000E+00  0.0000E+00  0.0000E+00  0.0000E+00  0.0000E+00  0.0000E+00  0.0000E+00
    -32.273  0.0000E+00  0.0000E+00  0.0000E+00  0.0000E+00  0.0000E+00  0.0000E+00  0.0000E+00  0.0000E+00  0.0000E+00
    -32.084  0.0000E+00  0.0000E+00  0.0000E+00  0.0000E+00  0.0000E+00  0.0000E+00  0.0000E+00  0.0000E+00  0.0000E+00
    -31.894  0.0000E+00  0.0000E+00  0.0000E+00  0.0000E+00  0.0000E+00  0.0000E+00  0.0000E+00  0.0000E+00  0.0000E+00
    -31.705  0.0000E+00  0.0000E+00  0.0000E+00  0.0000E+00  0.0000E+00  0.0000E+00  0.0000E+00  0.0000E+00  0.0000E+00
    -31.515  0.0000E+00  0.0000E+00  0.0000E+00  0.0000E+00  0.0000E+00  0.0000E+00  0.0000E+00  0.0000E+00  0.0000E+00
    -31.326  0.0000E+00  0.0000E+00  0.0000E+00  0.0000E+00  0.0000E+00  0.0000E+00  0.0000E+00  0.0000E+00  0.0000E+00
    -31.136  0.0000E+00  0.0000E+00  0.0000E+00  0.0000E+00  0.0000E+00  0.0000E+00  0.0000E+00  0.0000E+00  0.0000E+00
    -30.947  0.0000E+00  0.0000E+00  0.0000E+00  0.0000E+00  0.0000E+00  0.0000E+00  0.0000E+00  0.0000E+00  0.0000E+00
    -30.758  0.0000E+00  0.0000E+00  0.0000E+00  0.0000E+00  0.0000E+00  0.0000E+00  0.0000E+00  0.0000E+00  0.0000E+00
    -30.568  0.0000E+00  0.0000E+00  0.0000E+00  0.0000E+00  0.0000E+00  0.0000E+00  0.0000E+00  0.0000E+00  0.0000E+00
    -30.379  0.0000E+00  0.0000E+00  0.0000E+00  0.0000E+00  0.0000E+00  0.0000E+00  0.0000E+00  0.0000E+00  0.0000E+00
    -30.189  0.0000E+00  0.0000E+00  0.0000E+00  0.0000E+00  0.0000E+00  0.0000E+00  0.0000E+00  0.0000E+00  0.0000E+00
    -30.000  0.0000E+00  0.0000E+00  0.0000E+00  0.0000E+00  0.0000E+00  0.0000E+00  0.0000E+00  0.0000E+00  0.0000E+00
    -29.811  0.0000E+00  0.0000E+00  0.0000E+00  0.0000E+00  0.0000E+00  0.0000E+00  0.0000E+00  0.0000E+00  0.0000E+00
    -29.621  0.0000E+00  0.0000E+00  0.0000E+00  0.0000E+00  0.0000E+00  0.0000E+00  0.0000E+00  0.0000E+00  0.0000E+00
    -29.432  0.0000E+00  0.0000E+00  0.0000E+00  0.0000E+00  0.0000E+00  0.0000E+00  0.0000E+00  0.0000E+00  0.0000E+00
    -29.242  0.0000E+00  0.0000E+00  0.0000E+00  0.0000E+00  0.0000E+00  0.0000E+00  0.0000E+00  0.0000E+00  0.0000E+00
    -29.053  0.0000E+00  0.0000E+00  0.0000E+00  0.0000E+00  0.0000E+00  0.0000E+00  0.0000E+00  0.0000E+00  0.0000E+00
    -28.863  0.0000E+00  0.0000E+00  0.0000E+00  0.0000E+00  0.0000E+00  0.0000E+00  0.0000E+00  0.0000E+00  0.0000E+00
    -28.674  0.0000E+00  0.0000E+00  0.0000E+00  0.0000E+00  0.0000E+00  0.0000E+00  0.0000E+00  0.0000E+00  0.0000E+00
    -28.485  0.0000E+00  0.0000E+00  0.0000E+00  0.0000E+00  0.0000E+00  0.0000E+00  0.0000E+00  0.0000E+00  0.0000E+00
    -28.295  0.0000E+00  0.0000E+00  0.0000E+00  0.0000E+00  0.0000E+00  0.0000E+00  0.0000E+00  0.0000E+00  0.0000E+00
    -28.106  0.0000E+00  0.0000E+00  0.0000E+00  0.0000E+00  0.0000E+00  0.0000E+00  0.0000E+00  0.0000E+00  0.0000E+00
    -27.916  0.0000E+00  0.0000E+00  0.0000E+00  0.0000E+00  0.0000E+00  0.0000E+00  0.0000E+00  0.0000E+00  0.0000E+00
    -27.727  0.0000E+00  0.0000E+00  0.0000E+00  0.0000E+00  0.0000E+00  0.0000E+00  0.0000E+00  0.0000E+00  0.0000E+00
    -27.537  0.0000E+00  0.0000E+00  0.0000E+00  0.0000E+00  0.0000E+00  0.0000E+00  0.0000E+00  0.0000E+00  0.0000E+00
    -27.348  0.0000E+00  0.0000E+00  0.0000E+00  0.0000E+00  0.0000E+00  0.0000E+00  0.0000E+00  0.0000E+00  0.0000E+00
    -27.159  0.0000E+00  0.0000E+00  0.0000E+00  0.0000E+00  0.0000E+00  0.0000E+00  0.0000E+00  0.0000E+00  0.0000E+00
    -26.969  0.0000E+00  0.0000E+00  0.0000E+00  0.0000E+00  0.0000E+00  0.0000E+00  0.0000E+00  0.0000E+00  0.0000E+00
    -26.780  0.0000E+00  0.0000E+00  0.0000E+00  0.0000E+00  0.0000E+00  0.0000E+00  0.0000E+00  0.0000E+00  0.0000E+00
    -26.590  0.0000E+00  0.0000E+00  0.0000E+00  0.0000E+00  0.0000E+00  0.0000E+00  0.0000E+00  0.0000E+00  0.0000E+00
    -26.401  0.0000E+00  0.0000E+00  0.0000E+00  0.0000E+00  0.0000E+00  0.0000E+00  0.0000E+00  0.0000E+00  0.0000E+00
    -26.212  0.0000E+00  0.0000E+00  0.0000E+00  0.0000E+00  0.0000E+00  0.0000E+00  0.0000E+00  0.0000E+00  0.0000E+00
    -26.022  0.0000E+00  0.0000E+00  0.0000E+00  0.0000E+00  0.0000E+00  0.0000E+00  0.0000E+00  0.0000E+00  0.0000E+00
    -25.833  0.0000E+00  0.0000E+00  0.0000E+00  0.0000E+00  0.0000E+00  0.0000E+00  0.0000E+00  0.0000E+00  0.0000E+00
    -25.643  0.0000E+00  0.0000E+00  0.0000E+00  0.0000E+00  0.0000E+00  0.0000E+00  0.0000E+00  0.0000E+00  0.0000E+00
    -25.454  0.0000E+00  0.0000E+00  0.0000E+00  0.0000E+00  0.0000E+00  0.0000E+00  0.0000E+00  0.0000E+00  0.0000E+00
    -25.264  0.0000E+00  0.0000E+00  0.0000E+00  0.0000E+00  0.0000E+00  0.0000E+00  0.0000E+00  0.0000E+00  0.0000E+00
    -25.075  0.0000E+00  0.0000E+00  0.0000E+00  0.0000E+00  0.0000E+00  0.0000E+00  0.0000E+00  0.0000E+00  0.0000E+00
    -24.886  0.0000E+00  0.0000E+00  0.0000E+00  0.0000E+00  0.0000E+00  0.0000E+00  0.0000E+00  0.0000E+00  0.0000E+00
    -24.696  0.0000E+00  0.0000E+00  0.0000E+00  0.0000E+00  0.0000E+00  0.0000E+00  0.0000E+00  0.0000E+00  0.0000E+00
    -24.507  0.0000E+00  0.0000E+00  0.0000E+00  0.0000E+00  0.0000E+00  0.0000E+00  0.0000E+00  0.0000E+00  0.0000E+00
    -24.317  0.0000E+00  0.0000E+00  0.0000E+00  0.0000E+00  0.0000E+00  0.0000E+00  0.0000E+00  0.0000E+00  0.0000E+00
    -24.128  0.0000E+00  0.0000E+00  0.0000E+00  0.0000E+00  0.0000E+00  0.0000E+00  0.0000E+00  0.0000E+00  0.0000E+00
    -23.938  0.0000E+00  0.0000E+00  0.0000E+00  0.0000E+00  0.0000E+00  0.0000E+00  0.0000E+00  0.0000E+00  0.0000E+00
    -23.749  0.0000E+00  0.0000E+00  0.0000E+00  0.0000E+00  0.0000E+00  0.0000E+00  0.0000E+00  0.0000E+00  0.0000E+00
    -23.560  0.0000E+00  0.0000E+00  0.0000E+00  0.0000E+00  0.0000E+00  0.0000E+00  0.0000E+00  0.0000E+00  0.0000E+00
    -23.370  0.0000E+00  0.0000E+00  0.0000E+00  0.0000E+00  0.0000E+00  0.0000E+00  0.0000E+00  0.0000E+00  0.0000E+00
    -23.181  0.0000E+00  0.0000E+00  0.0000E+00  0.0000E+00  0.0000E+00  0.0000E+00  0.0000E+00  0.0000E+00  0.0000E+00
    -22.991  0.0000E+00  0.0000E+00  0.0000E+00  0.0000E+00  0.0000E+00  0.0000E+00  0.0000E+00  0.0000E+00  0.0000E+00
    -22.802  0.0000E+00  0.0000E+00  0.0000E+00  0.0000E+00  0.0000E+00  0.0000E+00  0.0000E+00  0.0000E+00  0.0000E+00
    -22.613  0.0000E+00  0.0000E+00  0.0000E+00  0.0000E+00  0.0000E+00  0.0000E+00  0.0000E+00  0.0000E+00  0.0000E+00
    -22.423  0.0000E+00  0.0000E+00  0.0000E+00  0.0000E+00  0.0000E+00  0.0000E+00  0.0000E+00  0.0000E+00  0.0000E+00
    -22.234  0.0000E+00  0.0000E+00  0.0000E+00  0.0000E+00  0.0000E+00  0.0000E+00  0.0000E+00  0.0000E+00  0.0000E+00
    -22.044  0.0000E+00  0.0000E+00  0.0000E+00  0.0000E+00  0.0000E+00  0.0000E+00  0.0000E+00  0.0000E+00  0.0000E+00
    -21.855  0.0000E+00  0.0000E+00  0.0000E+00  0.0000E+00  0.0000E+00  0.0000E+00  0.0000E+00  0.0000E+00  0.0000E+00
    -21.665  0.0000E+00  0.0000E+00  0.0000E+00  0.0000E+00  0.0000E+00  0.0000E+00  0.0000E+00  0.0000E+00  0.0000E+00
    -21.476  0.0000E+00  0.0000E+00  0.0000E+00  0.0000E+00  0.0000E+00  0.0000E+00  0.0000E+00  0.0000E+00  0.0000E+00
    -21.287  0.0000E+00  0.0000E+00  0.0000E+00  0.0000E+00  0.0000E+00  0.0000E+00  0.0000E+00  0.0000E+00  0.0000E+00
    -21.097  0.0000E+00  0.0000E+00  0.0000E+00  0.0000E+00  0.0000E+00  0.0000E+00  0.0000E+00  0.0000E+00  0.0000E+00
    -20.908  0.0000E+00  0.0000E+00  0.0000E+00  0.0000E+00  0.0000E+00  0.0000E+00  0.0000E+00  0.0000E+00  0.0000E+00
    -20.718  0.0000E+00  0.0000E+00  0.0000E+00  0.0000E+00  0.0000E+00  0.0000E+00  0.0000E+00  0.0000E+00  0.0000E+00
    -20.529  0.0000E+00  0.0000E+00  0.0000E+00  0.0000E+00  0.0000E+00  0.0000E+00  0.0000E+00  0.0000E+00  0.0000E+00
    -20.339  0.0000E+00  0.0000E+00  0.0000E+00  0.0000E+00  0.0000E+00  0.0000E+00  0.0000E+00  0.0000E+00  0.0000E+00
    -20.150  0.0000E+00  0.0000E+00  0.0000E+00  0.0000E+00  0.0000E+00  0.0000E+00  0.0000E+00  0.0000E+00  0.0000E+00
    -19.961  0.0000E+00  0.0000E+00  0.0000E+00  0.0000E+00  0.0000E+00  0.0000E+00  0.0000E+00  0.0000E+00  0.0000E+00
    -19.771  0.0000E+00  0.0000E+00  0.0000E+00  0.0000E+00  0.0000E+00  0.0000E+00  0.0000E+00  0.0000E+00  0.0000E+00
    -19.582  0.0000E+00  0.0000E+00  0.0000E+00  0.0000E+00  0.0000E+00  0.0000E+00  0.0000E+00  0.0000E+00  0.0000E+00
    -19.392  0.0000E+00  0.0000E+00  0.0000E+00  0.0000E+00  0.0000E+00  0.0000E+00  0.0000E+00  0.0000E+00  0.0000E+00
    -19.203  0.0000E+00  0.0000E+00  0.0000E+00  0.0000E+00  0.0000E+00  0.0000E+00  0.0000E+00  0.0000E+00  0.0000E+00
    -19.013  0.0000E+00  0.0000E+00  0.0000E+00  0.0000E+00  0.0000E+00  0.0000E+00  0.0000E+00  0.0000E+00  0.0000E+00
    -18.824  0.0000E+00  0.0000E+00  0.0000E+00  0.0000E+00  0.0000E+00  0.0000E+00  0.0000E+00  0.0000E+00  0.0000E+00
    -18.635  0.0000E+00  0.0000E+00  0.0000E+00  0.0000E+00  0.0000E+00  0.0000E+00  0.0000E+00  0.0000E+00  0.0000E+00
    -18.445  0.0000E+00  0.0000E+00  0.0000E+00  0.0000E+00  0.0000E+00  0.0000E+00  0.0000E+00  0.0000E+00  0.0000E+00
    -18.256  0.0000E+00  0.0000E+00  0.0000E+00  0.0000E+00  0.0000E+00  0.0000E+00  0.0000E+00  0.0000E+00  0.0000E+00
    -18.066  0.0000E+00  0.0000E+00  0.0000E+00  0.0000E+00  0.0000E+00  0.0000E+00  0.0000E+00  0.0000E+00  0.0000E+00
    -17.877  0.0000E+00  0.0000E+00  0.0000E+00  0.0000E+00  0.0000E+00  0.0000E+00  0.0000E+00  0.0000E+00  0.0000E+00
    -17.688  0.0000E+00  0.0000E+00  0.0000E+00  0.0000E+00  0.0000E+00  0.0000E+00  0.0000E+00  0.0000E+00  0.0000E+00
    -17.498  0.0000E+00  0.0000E+00  0.0000E+00  0.0000E+00  0.0000E+00  0.0000E+00  0.0000E+00  0.0000E+00  0.0000E+00
    -17.309  0.0000E+00  0.0000E+00  0.0000E+00  0.0000E+00  0.0000E+00  0.0000E+00  0.0000E+00  0.0000E+00  0.0000E+00