       N       E                     dE             d eps       ncg     rms          rms(c)
RMM:   1    -0.115778025673E+04   -0.11578E+04   -0.14707E+05   184   0.131E+03
RMM:   2     0.735291983045E+03    0.18931E+04   -0.22955E+04   184   0.254E+02
RMM:   3     0.241510007570E+03   -0.49378E+03   -0.72490E+03   184   0.134E+02
RMM:   4    -0.141052641204E+02   -0.25562E+03   -0.25782E+03   184   0.975E+01
RMM:   5    -0.125170733167E+03   -0.11107E+03   -0.10060E+03   184   0.633E+01
RMM:   6    -0.171645133969E+03   -0.46474E+02   -0.43086E+02   184   0.467E+01
RMM:   7    -0.194148916562E+03   -0.22504E+02   -0.21530E+02   184   0.358E+01
RMM:   8    -0.207308362610E+03   -0.13159E+02   -0.12351E+02   184   0.306E+01
RMM:   9    -0.242025964908E+03   -0.34718E+02   -0.34464E+02   668   0.267E+01
RMM:  10    -0.259901316936E+03   -0.17875E+02   -0.17615E+02   667   0.172E+01
RMM:  11    -0.263936624902E+03   -0.40353E+01   -0.40977E+01   646   0.104E+01
RMM:  12    -0.266046797961E+03   -0.21102E+01   -0.21043E+01   634   0.742E+00    0.361E+01
RMM:  13    -0.256803809972E+03    0.92430E+01   -0.23080E+01   495   0.746E+00    0.236E+01
RMM:  14    -0.255713438598E+03    0.10904E+01   -0.18456E+01   518   0.657E+00    0.677E+00
RMM:  15    -0.255836856080E+03   -0.12342E+00   -0.41263E+00   586   0.385E+00    0.165E+00
RMM:  16    -0.255938094048E+03   -0.10124E+00   -0.14170E+00   632   0.250E+00    0.131E+00
RMM:  17    -0.256023517397E+03   -0.85423E-01   -0.81737E-01   611   0.189E+00    0.465E-01
RMM:  18    -0.256082527998E+03   -0.59011E-01   -0.59617E-01   608   0.146E+00    0.212E-01
RMM:  19    -0.256121982074E+03   -0.39454E-01   -0.39989E-01   620   0.115E+00    0.214E-01
RMM:  20    -0.256141032067E+03   -0.19050E-01   -0.19635E-01   637   0.878E-01    0.266E-01
RMM:  21    -0.256154766657E+03   -0.13735E-01   -0.15498E-01   616   0.724E-01    0.467E-01
RMM:  22    -0.256162478744E+03   -0.77121E-02   -0.79952E-02   608   0.597E-01    0.240E-01
RMM:  23    -0.256167971967E+03   -0.54932E-02   -0.62790E-02   638   0.481E-01    0.134E-01
RMM:  24    -0.256171707375E+03   -0.37354E-02   -0.39761E-02   638   0.380E-01    0.157E-01
RMM:  25    -0.256173797065E+03   -0.20897E-02   -0.23525E-02   620   0.303E-01    0.160E-01
RMM:  26    -0.256175129689E+03   -0.13326E-02   -0.17400E-02   608   0.258E-01    0.229E-01
RMM:  27    -0.256176354652E+03   -0.12250E-02   -0.11816E-02   600   0.225E-01    0.110E-01
RMM:  28    -0.256176931004E+03   -0.57635E-03   -0.10523E-02   574   0.205E-01    0.133E-01
RMM:  29    -0.256177399165E+03   -0.46816E-03   -0.57728E-03   638   0.143E-01    0.164E-01
RMM:  30    -0.256177794759E+03   -0.39559E-03   -0.35510E-03   608   0.112E-01    0.146E-01
RMM:  31    -0.256178149699E+03   -0.35494E-03   -0.26866E-03   602   0.974E-02    0.901E-02
RMM:  32    -0.256178403643E+03   -0.25394E-03   -0.22098E-03   624   0.832E-02    0.582E-02
RMM:  33    -0.256178579158E+03   -0.17551E-03   -0.14860E-03   607   0.688E-02    0.432E-02
RMM:  34    -0.256178684027E+03   -0.10487E-03   -0.93196E-04   578   0.562E-02    0.357E-02
RMM:  35    -0.256178757661E+03   -0.73634E-04   -0.69766E-04   575   0.473E-02    0.300E-02
RMM:  36    -0.256178798987E+03   -0.41326E-04   -0.48660E-04   578   0.394E-02    0.262E-02
RMM:  37    -0.256178830912E+03   -0.31925E-04   -0.34658E-04   572   0.331E-02    0.189E-02
RMM:  38    -0.256178863208E+03   -0.32296E-04   -0.27688E-04   571   0.290E-02    0.100E-02
RMM:  39    -0.256178880907E+03   -0.17699E-04   -0.19584E-04   570   0.245E-02    0.568E-03
RMM:  40    -0.256178895587E+03   -0.14680E-04   -0.14508E-04   527   0.207E-02    0.302E-03
RMM:  41    -0.256178906111E+03   -0.10524E-04   -0.98086E-05   487   0.175E-02    0.165E-03
RMM:  42    -0.256178913810E+03   -0.76996E-05   -0.72799E-05   463   0.152E-02    0.124E-03
RMM:  43    -0.256178918711E+03   -0.49010E-05   -0.50600E-05   433   0.133E-02    0.172E-03
RMM:  44    -0.256178922375E+03   -0.36636E-05   -0.37895E-05   411   0.119E-02    0.239E-03
RMM:  45    -0.256178925294E+03   -0.29188E-05   -0.27105E-05   423   0.107E-02    0.306E-03
RMM:  46    -0.256178926869E+03   -0.15756E-05   -0.18057E-05   337   0.976E-03    0.335E-03
RMM:  47    -0.256178927930E+03   -0.10606E-05   -0.12680E-05   320   0.912E-03    0.351E-03
RMM:  48    -0.256178928726E+03   -0.79615E-06   -0.10597E-05   336   0.871E-03    0.367E-03
RMM:  49    -0.256178929355E+03   -0.62878E-06   -0.75706E-06   317   0.836E-03
   1 F= -.25617893E+03 E0= -.25617893E+03  d E =-.256179E+03
