 vasp.5.4.4.18Apr17-6-g9f103f2a35 (build Jan 22 2020 12:49:05) complex          
  
 executed on Bebop BDW IPS19.0.5  date 2022.09.29  10:06:48
 running on   64 total cores
 distrk:  each k-point on   64 cores,    1 groups
 distr:  one band on NCORES_PER_BAND=   8 cores,    8 groups


--------------------------------------------------------------------------------------------------------


 INCAR:
 POTCAR:    PAW_PBE Li_sv 10Sep2004               
 POTCAR:    PAW_PBE P 06Sep2000                   
 POTCAR:    PAW_PBE S 06Sep2000                   
 POTCAR:    PAW_PBE Cl 06Sep2000                  
 POTCAR:    PAW_PBE Li_sv 10Sep2004               
   VRHFIN =Li: 1s2s2p                                                           
   LEXCH  = PE                                                                  
   EATOM  =   202.7858 eV,   14.9043 Ry                                         
                                                                                
   TITEL  = PAW_PBE Li_sv 10Sep2004                                             
   LULTRA =        F    use ultrasoft PP ?                                      
   IUNSCR =        0    unscreen: 0-lin 1-nonlin 2-no                           
   RPACOR =    0.000    partial core radius                                     
   POMASS =    7.010; ZVAL   =    3.000    mass and valenz                      
   RCORE  =    1.700    outmost cutoff radius                                   
   RWIGS  =    2.050; RWIGS  =    1.085    wigner-seitz radius (au A)           
   ENMAX  =  499.034; ENMIN  =  374.276 eV                                      
   ICORE  =        2    local potential                                         
   LCOR   =        T    correct aug charges                                     
   LPAW   =        T    paw PP                                                  
   EAUG   =  628.945                                                            
   RMAX   =    1.732    core radius for proj-oper                               
   RAUG   =    1.300    factor for augmentation sphere                          
   RDEP   =    1.728    radius for radial grids                                 
   RDEPT  =    1.329    core radius for aug-charge                              
                                                                                
   Atomic configuration                                                         
    4 entries                                                                   
     n  l   j            E        occ.                                          
     1  0  0.50       -51.8549   2.0000                                         
     2  0  0.50        -2.8742   1.0000                                         
     2  1  0.50        -1.3606   0.0000                                         
     3  2  1.50        -1.3606   0.0000                                         
   Description                                                                  
     l       E           TYP  RCUT    TYP  RCUT                                 
     0    -51.8548813     23  1.400                                             
     0     -2.8742052     23  1.700                                             
     1     -1.3605826     23  1.400                                             
     2     -1.3605826     23  1.400                                             
  local pseudopotential read in
  atomic valenz-charges read in
  non local Contribution for L=           0  read in
    real space projection operators read in
  non local Contribution for L=           0  read in
    real space projection operators read in
  non local Contribution for L=           1  read in
    real space projection operators read in
    PAW grid and wavefunctions read in
 
   number of l-projection  operators is LMAX  =           3
   number of lm-projection operators is LMMAX =           5
 
 POTCAR:    PAW_PBE P 06Sep2000                   
   VRHFIN =P : s2p3                                                             
   LEXCH  = PE                                                                  
   EATOM  =   176.0430 eV,   12.9388 Ry                                         
                                                                                
   TITEL  = PAW_PBE P 06Sep2000                                                 
   LULTRA =        F    use ultrasoft PP ?                                      
   IUNSCR =        1    unscreen: 0-lin 1-nonlin 2-no                           
   RPACOR =    1.500    partial core radius                                     
   POMASS =   30.974; ZVAL   =    5.000    mass and valenz                      
   RCORE  =    1.900    outmost cutoff radius                                   
   RWIGS  =    2.330; RWIGS  =    1.233    wigner-seitz radius (au A)           
   ENMAX  =  255.040; ENMIN  =  191.280 eV                                      
   ICORE  =        2    local potential                                         
   LCOR   =        T    correct aug charges                                     
   LPAW   =        T    paw PP                                                  
   EAUG   =  342.924                                                            
   DEXC   =    0.000                                                            
   RMAX   =    1.935    core radius for proj-oper                               
   RAUG   =    1.300    factor for augmentation sphere                          
   RDEP   =    1.931    radius for radial grids                                 
   RDEPT  =    1.794    core radius for aug-charge                              
                                                                                
   Atomic configuration                                                         
    6 entries                                                                   
     n  l   j            E        occ.                                          
     1  0  0.50     -2084.0982   2.0000                                         
     2  0  0.50      -173.9859   2.0000                                         
     2  1  1.50      -124.4865   6.0000                                         
     3  0  0.50       -13.9692   2.0000                                         
     3  1  0.50        -5.5067   3.0000                                         
     3  2  1.50        -5.4423   0.0000                                         
   Description                                                                  
     l       E           TYP  RCUT    TYP  RCUT                                 
     0    -13.9691527     23  1.900                                             
     0    -11.7794650     23  1.900                                             
     1     -5.5066937     23  1.900                                             
     1     -0.2556953     23  1.900                                             
     2     -5.4423304     23  1.900                                             
  local pseudopotential read in
  partial core-charges read in
  partial kinetic energy density read in
  atomic valenz-charges read in
  non local Contribution for L=           0  read in
    real space projection operators read in
  non local Contribution for L=           0  read in
    real space projection operators read in
  non local Contribution for L=           1  read in
    real space projection operators read in
  non local Contribution for L=           1  read in
    real space projection operators read in
    PAW grid and wavefunctions read in
 
   number of l-projection  operators is LMAX  =           4
   number of lm-projection operators is LMMAX =           8
 
 POTCAR:    PAW_PBE S 06Sep2000                   
   VRHFIN =S : s2p4                                                             
   LEXCH  = PE                                                                  
   EATOM  =   276.8230 eV,   20.3459 Ry                                         
                                                                                
   TITEL  = PAW_PBE S 06Sep2000                                                 
   LULTRA =        F    use ultrasoft PP ?                                      
   IUNSCR =        1    unscreen: 0-lin 1-nonlin 2-no                           
   RPACOR =    1.500    partial core radius                                     
   POMASS =   32.066; ZVAL   =    6.000    mass and valenz                      
   RCORE  =    1.900    outmost cutoff radius                                   
   RWIGS  =    2.200; RWIGS  =    1.164    wigner-seitz radius (au A)           
   ENMAX  =  258.689; ENMIN  =  194.016 eV                                      
   ICORE  =        2    local potential                                         
   LCOR   =        T    correct aug charges                                     
   LPAW   =        T    paw PP                                                  
   EAUG   =  335.092                                                            
   DEXC   =    0.000                                                            
   RMAX   =    1.942    core radius for proj-oper                               
   RAUG   =    1.300    factor for augmentation sphere                          
   RDEP   =    1.954    radius for radial grids                                 
   RDEPT  =    1.744    core radius for aug-charge                              
                                                                                
   Atomic configuration                                                         
    6 entries                                                                   
     n  l   j            E        occ.                                          
     1  0  0.50     -2405.8406   2.0000                                         
     2  0  0.50      -211.7007   2.0000                                         
     2  1  1.50      -156.4958   6.0000                                         
     3  0  0.50       -17.2562   2.0000                                         
     3  1  0.50        -7.0085   4.0000                                         
     3  2  1.50        -6.8029   0.0000                                         
   Description                                                                  
     l       E           TYP  RCUT    TYP  RCUT                                 
     0    -17.2561641     23  1.900                                             
     0    -15.8743224     23  1.900                                             
     1     -7.0085400     23  1.900                                             
     1     -2.7779785     23  1.900                                             
     2     -6.8029130     23  1.900                                             
  local pseudopotential read in
  partial core-charges read in
  partial kinetic energy density read in
  atomic valenz-charges read in
  non local Contribution for L=           0  read in
    real space projection operators read in
  non local Contribution for L=           0  read in
    real space projection operators read in
  non local Contribution for L=           1  read in
    real space projection operators read in
  non local Contribution for L=           1  read in
    real space projection operators read in
    PAW grid and wavefunctions read in
 
   number of l-projection  operators is LMAX  =           4
   number of lm-projection operators is LMMAX =           8
 
 POTCAR:    PAW_PBE Cl 06Sep2000                  
   VRHFIN =Cl: s2p5                                                             
   LEXCH  = PE                                                                  
   EATOM  =   409.7259 eV,   30.1140 Ry                                         
                                                                                
   TITEL  = PAW_PBE Cl 06Sep2000                                                
   LULTRA =        F    use ultrasoft PP ?                                      
   IUNSCR =        1    unscreen: 0-lin 1-nonlin 2-no                           
   RPACOR =    1.500    partial core radius                                     
   POMASS =   35.453; ZVAL   =    7.000    mass and valenz                      
   RCORE  =    1.900    outmost cutoff radius                                   
   RWIGS  =    2.100; RWIGS  =    1.111    wigner-seitz radius (au A)           
   ENMAX  =  262.472; ENMIN  =  196.854 eV                                      
   ICORE  =        2    local potential                                         
   LCOR   =        T    correct aug charges                                     
   LPAW   =        T    paw PP                                                  
   EAUG   =  356.192                                                            
   DEXC   =    0.000                                                            
   RMAX   =    1.945    core radius for proj-oper                               
   RAUG   =    1.300    factor for augmentation sphere                          
   RDEP   =    2.020    radius for radial grids                                 
   RDEPT  =    1.678    core radius for aug-charge                              
                                                                                
   Atomic configuration                                                         
    6 entries                                                                   
     n  l   j            E        occ.                                          
     1  0  0.50     -2751.1850   2.0000                                         
     2  0  0.50      -252.6861   2.0000                                         
     2  1  1.50      -191.6157   6.0000                                         
     3  0  0.50       -20.6916   2.0000                                         
     3  1  0.50        -8.5949   5.0000                                         
     3  2  1.50        -8.1635   0.0000                                         
   Description                                                                  
     l       E           TYP  RCUT    TYP  RCUT                                 
     0    -20.6915656     23  1.900                                             
     0    -22.0521482     23  1.900                                             
     1     -8.5948577     23  1.900                                             
     1     -5.3847331     23  1.900                                             
     2     -8.1634956     23  1.900                                             
  local pseudopotential read in
  partial core-charges read in
  partial kinetic energy density read in
  atomic valenz-charges read in
  non local Contribution for L=           0  read in
    real space projection operators read in
  non local Contribution for L=           0  read in
    real space projection operators read in
  non local Contribution for L=           1  read in
    real space projection operators read in
  non local Contribution for L=           1  read in
    real space projection operators read in
    PAW grid and wavefunctions read in
 
   number of l-projection  operators is LMAX  =           4
   number of lm-projection operators is LMMAX =           8
 

 ----------------------------------------------------------------------------- 
|                                                                             |
|  ADVICE TO THIS USER RUNNING 'VASP/VAMP'   (HEAR YOUR MASTER'S VOICE ...):  |
|                                                                             |
|      You have a (more or less) 'large supercell' and for larger cells       |
|      it might be more efficient to use real space projection opertators     |
|      So try LREAL= Auto  in the INCAR   file.                               |
|      Mind:          For very  accurate calculation you might also keep the  |
|      reciprocal projection scheme          (i.e. LREAL=.FALSE.)             |
|                                                                             |
 ----------------------------------------------------------------------------- 

  PAW_PBE Li_sv 10Sep2004               :
 energy of atom  1       EATOM= -202.7858
 kinetic energy error for atom=    0.0143 (will be added to EATOM!!)
  PAW_PBE P 06Sep2000                   :
 energy of atom  2       EATOM= -176.0430
 kinetic energy error for atom=    0.0013 (will be added to EATOM!!)
  PAW_PBE S 06Sep2000                   :
 energy of atom  3       EATOM= -276.8230
 kinetic energy error for atom=    0.0020 (will be added to EATOM!!)
  PAW_PBE Cl 06Sep2000                  :
 energy of atom  4       EATOM= -409.7259
 kinetic energy error for atom=    0.0030 (will be added to EATOM!!)
 
 
 POSCAR: New POSCAR file                         
  positions in cartesian coordinates
  No initial velocities read in
 exchange correlation table for  LEXCH =        8
   RHO(1)=    0.500       N(1)  =     2000
   RHO(2)=  100.500       N(2)  =     4000
 


--------------------------------------------------------------------------------------------------------


 ion  position               nearest neighbor table
   1  0.626  0.910  0.005-  51 2.27  54 2.38  59 2.48
   2  0.729  0.571  0.615-  61 2.26  40 2.28  55 2.39  47 2.56
   3  0.215  0.153  0.032-  48 2.47  50 2.50  44 2.60  59 2.67
   4  0.155  0.690  0.191-  65 2.24  49 2.46  31 2.51
   5  0.270  0.180  0.327-  53 2.62
   6  0.208  0.056  0.659-  63 2.31  41 2.43  39 2.48  36 2.52
   7  0.751  0.570  0.224-  54 2.29  49 2.33
   8  0.518  0.068  0.316-  53 2.30  64 2.46  56 2.48  37 2.53
   9  0.981  0.930  0.593-  52 2.38  63 2.39  40 2.52  39 2.59  41 2.69
  10  0.924  0.376  0.233-  50 2.23  62 2.27  46 2.61
  11  0.437  0.976  0.532-  53 2.42  39 2.51
  12  0.889  0.598  0.022-  54 2.39  65 2.45  33 2.76
  13  0.024  0.360  0.739-  48 2.27  55 2.41  41 2.60  45 2.62
  14  0.310  0.531  0.586-  61 2.26  45 2.37  60 2.47  34 2.49
  15  0.594  0.250  0.998-  46 2.30  57 2.38  56 2.59
  16  0.829  0.220  0.831-  55 2.22  51 2.41  28 2.46  48 2.62
  17  0.628  0.535  0.985-  46 2.41  54 2.41  47 2.52  43 2.62
  18  0.460  0.405  0.438-  53 2.18  61 2.33  60 2.40  42 2.52
  19  0.481  0.649  0.153-  42 2.33  54 2.54  43 2.59
  20  0.217  0.744  0.864-  63 2.33  45 2.43  65 2.43  43 2.44
  21  0.677  0.264  0.218-  46 2.28  62 2.39  64 2.60
  22  0.965  0.683  0.721-  45 2.56  63 2.61  47 2.68  40 2.69
  23  0.009  0.363  0.455-  62 2.42  41 2.43  60 2.44  35 2.68
  24  0.911  0.206  0.043-  51 2.18  46 2.33  50 2.38  48 2.49
  25  0.707  0.131  0.453-  64 2.24  52 2.28  62 2.38  53 2.56
  26  0.544  0.635  0.780-  58 2.47  47 2.49  43 2.69
  27  0.633  0.863  0.235-  64 2.31  54 2.46  37 2.59
  28  0.687  0.042  0.768-  58 2.42  16 2.46  57 2.61  52 2.68  51 2.69
  29  0.601  0.269  0.623-  61 2.38  57 2.44  53 2.53  55 2.57
  30  0.914  0.885  0.005-  51 2.28  65 2.29
  31  0.305  0.612  0.338-  60 2.15  42 2.16  34 2.38   4 2.51
  32  0.272  0.476  0.884-  45 2.16  43 2.18  33 2.28
  33  0.093  0.428  0.987-  48 2.13  44 2.21  32 2.28  12 2.76
  34  0.192  0.706  0.487-  39 2.16  31 2.38  35 2.43  14 2.49
  35  0.972  0.622  0.459-  49 2.12  40 2.14  34 2.43  23 2.68
  36  0.373  0.109  0.804-  38 2.07  57 2.12   6 2.52
  37  0.383  0.895  0.224-  59 2.13   8 2.53  27 2.59
  38  0.449  0.923  0.823-  36 2.07  58 2.09
  39  0.204  0.916  0.496-  34 2.16   6 2.48  11 2.51   9 2.59
  40  0.834  0.744  0.538-  35 2.14   2 2.28   9 2.52  22 2.69
  41  0.031  0.187  0.585-  52 2.14  23 2.43   6 2.43  13 2.60   9 2.69
  42  0.516  0.611  0.337-  31 2.16  19 2.33  18 2.52
  43  0.392  0.628  0.957-  32 2.18  20 2.44  19 2.59  17 2.62  26 2.69
  44  0.198  0.373  0.136-  50 2.10  33 2.21   3 2.60
  45  0.181  0.561  0.743-  32 2.16  14 2.37  20 2.43  22 2.56  13 2.62
  46  0.760  0.372  0.072-  21 2.28  15 2.30  24 2.33  17 2.41  10 2.61
  47  0.769  0.557  0.819-  55 2.17  26 2.49  17 2.52   2 2.56  22 2.68
  48  0.070  0.253  0.895-  33 2.13  13 2.27   3 2.47  24 2.49  16 2.62
  49  0.952  0.640  0.289-  35 2.12   7 2.33   4 2.46
  50  0.069  0.224  0.183-  44 2.10  10 2.23  24 2.38   3 2.50
  51  0.784  0.060  0.969-  24 2.18   1 2.27  30 2.28  16 2.41  28 2.69
  52  0.838  0.112  0.601-  41 2.14  25 2.28   9 2.38  28 2.68
  53  0.465  0.195  0.464-  18 2.18   8 2.30  11 2.42  29 2.53  25 2.56   5 2.62
  54  0.706  0.718  0.090-   7 2.29   1 2.38  12 2.39  17 2.41  27 2.46  19 2.54
  55  0.792  0.384  0.719-  47 2.17  16 2.22   2 2.39  13 2.41  29 2.57
  56  0.437  0.182  0.153-  59 2.15   8 2.48  15 2.59
  57  0.534  0.239  0.811-  36 2.12  15 2.38  29 2.44  28 2.61
  58  0.569  0.854  0.699-  38 2.09  28 2.42  26 2.47
  59  0.416  0.996  0.076-  37 2.13  56 2.15   1 2.48   3 2.67
  60  0.230  0.438  0.413-  31 2.15  18 2.40  23 2.44  14 2.47
  61  0.526  0.488  0.605-   2 2.26  14 2.26  18 2.33  29 2.38
  62  0.797  0.325  0.377-  10 2.27  25 2.38  21 2.39  23 2.42
  63  0.105  0.891  0.754-   6 2.31  20 2.33   9 2.39  22 2.61
  64  0.754  0.040  0.293-  25 2.24  27 2.31   8 2.46  21 2.60
  65  0.082  0.740  0.025-   4 2.24  30 2.29  20 2.43  12 2.45
 

IMPORTANT INFORMATION: All symmetrisations will be switched off!
NOSYMM: (Re-)initialisation of all symmetry stuff for point group C_1.

 
 
 KPOINTS: Regular mesh centered at Gamma          

Automatic generation of k-mesh.
Space group operators:
 irot       det(A)        alpha          n_x          n_y          n_z        tau_x        tau_y        tau_z
    1     1.000000     0.000000     1.000000     0.000000     0.000000     0.000000     0.000000     0.000000
 
 Subroutine IBZKPT returns following result:
 ===========================================
 
 Found      1 irreducible k-points:
 
 Following reciprocal coordinates:
            Coordinates               Weight
  0.000000  0.000000  0.000000      1.000000
 
 Following cartesian coordinates:
            Coordinates               Weight
  0.000000  0.000000  0.000000      1.000000
 


--------------------------------------------------------------------------------------------------------




 Dimension of arrays:
   k-points           NKPTS =      1   k-points in BZ     NKDIM =      1   number of bands    NBANDS=    184
   number of dos      NEDOS =    301   number of ions     NIONS =     65
   non local maximal  LDIM  =      4   non local SUM 2l+1 LMDIM =      8
   total plane-waves  NPLWV = 219520
   max r-space proj   IRMAX =      1   max aug-charges    IRDMAX=   5529
   dimension x,y,z NGX =    56 NGY =   56 NGZ =   70
   dimension x,y,z NGXF=   112 NGYF=  112 NGZF=  140
   support grid    NGXF=   112 NGYF=  112 NGZF=  140
   ions per type =              30   5  25   5
   NGX,Y,Z   is equivalent  to a cutoff of   9.08,  9.08,  9.42 a.u.
   NGXF,Y,Z  is equivalent  to a cutoff of  18.17, 18.17, 18.85 a.u.

 SYSTEM =  LPSC                                    
 POSCAR =  New POSCAR file                         

 Startparameter for this run:
   NWRITE =      2    write-flag & timer
   PREC   = normal    normal or accurate (medium, high low for compatibility)
   ISTART =      0    job   : 0-new  1-cont  2-samecut
   ICHARG =      2    charge: 1-file 2-atom 10-const
   ISPIN  =      1    spin polarized calculation?
   LNONCOLLINEAR =      F non collinear calculations
   LSORBIT =      F    spin-orbit coupling
   INIWAV =      1    electr: 0-lowe 1-rand  2-diag
   LASPH  =      F    aspherical Exc in radial PAW
   METAGGA=      F    non-selfconsistent MetaGGA calc.

 Electronic Relaxation 1
   ENCUT  =  500.0 eV  36.75 Ry    6.06 a.u.  18.69 18.69 22.52*2*pi/ulx,y,z
   ENINI  =  500.0     initial cutoff
   ENAUG  =  628.9 eV  augmentation charge cutoff
   NELM   =    100;   NELMIN=  2; NELMDL=-12     # of ELM steps 
   EDIFF  = 0.1E-05   stopping-criterion for ELM
   LREAL  =      F    real-space projection
   NLSPLINE    = F    spline interpolate recip. space projectors
   LCOMPAT=      F    compatible to vasp.4.4
   GGA_COMPAT  = T    GGA compatible to vasp.4.4-vasp.4.6
   LMAXPAW     = -100 max onsite density
   LMAXMIX     =    2 max onsite mixed and CHGCAR
   VOSKOWN=      0    Vosko Wilk Nusair interpolation
   ROPT   =    0.00000   0.00000   0.00000   0.00000
 Ionic relaxation
   EDIFFG = -.1E-01   stopping-criterion for IOM
   NSW    =      1    number of steps for IOM
   NBLOCK =      1;   KBLOCK =      1    inner block; outer block 
   IBRION =      2    ionic relax: 0-MD 1-quasi-New 2-CG
   NFREE  =      1    steps in history (QN), initial steepest desc. (CG)
   ISIF   =      2    stress and relaxation
   IWAVPR =     11    prediction:  0-non 1-charg 2-wave 3-comb
   ISYM   =      0    0-nonsym 1-usesym 2-fastsym
   LCORR  =      T    Harris-Foulkes like correction to forces

   POTIM  = 0.5000    time-step for ionic-motion
   TEIN   =    0.0    initial temperature
   TEBEG  =    0.0;   TEEND  =   0.0 temperature during run
   SMASS  =  -3.00    Nose mass-parameter (am)
   estimated Nose-frequenzy (Omega)   =  0.10E-29 period in steps =****** mass=  -0.240E-26a.u.
   SCALEE = 1.0000    scale energy and forces
   NPACO  =    256;   APACO  = 16.0  distance and # of slots for P.C.
   PSTRESS=    0.0 pullay stress

  Mass of Ions in am
   POMASS =   7.01 30.97 32.07 35.45
  Ionic Valenz
   ZVAL   =   3.00  5.00  6.00  7.00
  Atomic Wigner-Seitz radii
   RWIGS  =  -1.00 -1.00 -1.00 -1.00
  virtual crystal weights 
   VCA    =   1.00  1.00  1.00  1.00
   NELECT =     300.0000    total number of electrons
   NUPDOWN=      -1.0000    fix difference up-down

 DOS related values:
   EMIN   =  10.00;   EMAX   =-10.00  energy-range for DOS
   EFERMI =   0.00
   ISMEAR =     0;   SIGMA  =   0.05  broadening in eV -4-tet -1-fermi 0-gaus

 Electronic relaxation 2 (details)
   IALGO  =     48    algorithm
   LDIAG  =      T    sub-space diagonalisation (order eigenvalues)
   LSUBROT=      F    optimize rotation matrix (better conditioning)
   TURBO    =      0    0=normal 1=particle mesh
   IRESTART =      0    0=no restart 2=restart with 2 vectors
   NREBOOT  =      0    no. of reboots
   NMIN     =      0    reboot dimension
   EREF     =   0.00    reference energy to select bands
   IMIX   =      4    mixing-type and parameters
     AMIX     =   0.40;   BMIX     =  1.00
     AMIX_MAG =   1.60;   BMIX_MAG =  1.00
     AMIN     =   0.10
     WC   =   100.;   INIMIX=   1;  MIXPRE=   1;  MAXMIX= -45

 Intra band minimization:
   WEIMIN = 0.0010     energy-eigenvalue tresh-hold
   EBREAK =  0.14E-08  absolut break condition
   DEPER  =   0.30     relativ break condition  

   TIME   =   0.40     timestep for ELM

  volume/ion in A,a.u.               =      19.96       134.71
  Fermi-wavevector in a.u.,A,eV,Ry     =   1.004794  1.898785 13.736591  1.009611
  Thomas-Fermi vector in A             =   2.137432
 
 Write flags
   LWAVE        =      F    write WAVECAR
   LDOWNSAMPLE  =      F    k-point downsampling of WAVECAR
   LCHARG       =      F    write CHGCAR
   LVTOT        =      F    write LOCPOT, total local potential
   LVHAR        =      F    write LOCPOT, Hartree potential only
   LELF         =      F    write electronic localiz. function (ELF)
   LORBIT       =     11    0 simple, 1 ext, 2 COOP (PROOUT), +10 PAW based schemes


 Dipole corrections
   LMONO  =      F    monopole corrections only (constant potential shift)
   LDIPOL =      F    correct potential (dipole corrections)
   IDIPOL =      0    1-x, 2-y, 3-z, 4-all directions 
   EPSILON=  1.0000000 bulk dielectric constant

 Exchange correlation treatment:
   GGA     =    --    GGA type
   LEXCH   =     8    internal setting for exchange type
   VOSKOWN=      0    Vosko Wilk Nusair interpolation
   LHFCALC =     F    Hartree Fock is set to
   LHFONE  =     F    Hartree Fock one center treatment
   AEXX    =    0.0000 exact exchange contribution

 Linear response parameters
   LEPSILON=     F    determine dielectric tensor
   LRPA    =     F    only Hartree local field effects (RPA)
   LNABLA  =     F    use nabla operator in PAW spheres
   LVEL    =     F    velocity operator in full k-point grid
   LINTERFAST=   F  fast interpolation
   KINTER  =     0    interpolate to denser k-point grid
   CSHIFT  =0.1000    complex shift for real part using Kramers Kronig
   OMEGAMAX=  -1.0    maximum frequency
   DEG_THRESHOLD= 0.2000000E-02 threshold for treating states as degnerate
   RTIME   =   -0.100 relaxation time in fs
  (WPLASMAI=    0.000 imaginary part of plasma frequency in eV, 0.658/RTIME)
   DFIELD  = 0.0000000 0.0000000 0.0000000 field for delta impulse in time
 
 Orbital magnetization related:
   ORBITALMAG=     F  switch on orbital magnetization
   LCHIMAG   =     F  perturbation theory with respect to B field
   DQ        =  0.001000  dq finite difference perturbation B field
   LLRAUG    =     F  two centre corrections for induced B field



--------------------------------------------------------------------------------------------------------


 conjugate gradient relaxation of ions
 charge density and potential will be updated during run
 non-spin polarized calculation
 RMM-DIIS sequential band-by-band
 perform sub-space diagonalisation
    before iterative eigenvector-optimisation
 modified Broyden-mixing scheme, WC =      100.0
 initial mixing is a Kerker type mixing with AMIX =  0.4000 and BMIX =      1.0000
 Hartree-type preconditioning will be used
 using additional bands           34
 reciprocal scheme for non local part
 use partial core corrections
 calculate Harris-corrections to forces 
   (improved forces if not selfconsistent)
 use gradient corrections 
 use of overlap-Matrix (Vanderbilt PP)
 Gauss-broadening in eV      SIGMA  =   0.05


--------------------------------------------------------------------------------------------------------


  energy-cutoff  :      500.00
  volume of cell :     1297.52
      direct lattice vectors                 reciprocal lattice vectors
    10.250000000  0.000000000  0.000000000     0.097560976  0.000000000  0.000000000
     0.000000000 10.250000000  0.000000000     0.000000000  0.097560976  0.000000000
     0.000000000  0.000000000 12.350000000     0.000000000  0.000000000  0.080971660

  length of vectors
    10.250000000 10.250000000 12.350000000     0.097560976  0.097560976  0.080971660


 
 k-points in units of 2pi/SCALE and weight: Regular mesh centered at Gamma          
   0.00000000  0.00000000  0.00000000       1.000
 
 k-points in reciprocal lattice and weights: Regular mesh centered at Gamma          
   0.00000000  0.00000000  0.00000000       1.000
 
 position of ions in fractional coordinates (direct lattice) 
   0.62596293  0.91042049  0.00473563
   0.72937366  0.57105171  0.61488178
   0.21486927  0.15253366  0.03184202
   0.15529756  0.69016195  0.19139838
   0.26959512  0.17951122  0.32746235
   0.20799805  0.05642615  0.65919514
   0.75082927  0.56963024  0.22377976
   0.51759902  0.06831902  0.31609231
   0.98107317  0.93006341  0.59345992
   0.92441171  0.37607220  0.23275709
   0.43705854  0.97555707  0.53247045
   0.88904683  0.59803805  0.02175514
   0.02426107  0.35961854  0.73887530
   0.31030049  0.53071805  0.58550283
   0.59372098  0.25005073  0.99778138
   0.82926341  0.21963122  0.83094737
   0.62755805  0.53535317  0.98485830
   0.45996976  0.40508390  0.43816437
   0.48091707  0.64906439  0.15270607
   0.21683024  0.74421561  0.86395951
   0.67711122  0.26418634  0.21805749
   0.96470439  0.68312878  0.72063806
   0.00948600  0.36329366  0.45459676
   0.91132195  0.20599122  0.04262121
   0.70673463  0.13109854  0.45285749
   0.54436780  0.63526341  0.78020729
   0.63298439  0.86334049  0.23547854
   0.68652878  0.04206010  0.76755466
   0.60111024  0.26905268  0.62334980
   0.91402829  0.88541561  0.00496998
   0.30521561  0.61199317  0.33827045
   0.27217659  0.47633366  0.88446154
   0.09313239  0.42759512  0.98673684
   0.19165073  0.70622634  0.48746397
   0.97243805  0.62191024  0.45875466
   0.37346537  0.10892293  0.80365020
   0.38265659  0.89453268  0.22377814
   0.44868878  0.92281171  0.82317409
   0.20370049  0.91598537  0.49574494
   0.83363024  0.74437659  0.53846316
   0.03148995  0.18736195  0.58479109
   0.51579415  0.61133366  0.33674332
   0.39201854  0.62807902  0.95732794
   0.19846634  0.37256683  0.13597733
   0.18121951  0.56111707  0.74309474
   0.75996000  0.37223512  0.07191822
   0.76949561  0.55676000  0.81914170
   0.07000605  0.25293366  0.89537652
   0.95223902  0.64042439  0.28882510
   0.06892234  0.22413366  0.18327368
   0.78377073  0.06017385  0.96927935
   0.83770732  0.11223707  0.60081619
   0.46514829  0.19494829  0.46386397
   0.70635122  0.71762341  0.08959676
   0.79200976  0.38403220  0.71863401
   0.43663902  0.18236000  0.15265506
   0.53429366  0.23917854  0.81143320
   0.56933366  0.85434732  0.69912065
   0.41600878  0.99555122  0.07561725
   0.23031512  0.43802537  0.41306235
   0.52583024  0.48802244  0.60497490
   0.79654537  0.32452000  0.37673279
   0.10549854  0.89147122  0.75411498
   0.75388878  0.04027727  0.29274980
   0.08158644  0.73987902  0.02544478
 
 position of ions in cartesian coordinates  (Angst):
   6.41612000  9.33181000  0.05848500
   7.47608000  5.85328000  7.59379000
   2.20241000  1.56347000  0.39324900
   1.59180000  7.07416000  2.36377000
   2.76335000  1.83999000  4.04416000
   2.13198000  0.57836800  8.14106000
   7.69600000  5.83871000  2.76368000
   5.30539000  0.70027000  3.90374000
  10.05600000  9.53315000  7.32923000
   9.47522000  3.85474000  2.87455000
   4.47985000  9.99946000  6.57601000
   9.11273000  6.12989000  0.26867600
   0.24867600  3.68609000  9.12511000
   3.18058000  5.43986000  7.23096000
   6.08564000  2.56302000 12.32260000
   8.49995000  2.25122000 10.26220000
   6.43247000  5.48737000 12.16300000
   4.71469000  4.15211000  5.41133000
   4.92940000  6.65291000  1.88592000
   2.22251000  7.62821000 10.66990000
   6.94039000  2.70791000  2.69301000
   9.88822000  7.00207000  8.89988000
   0.09723150  3.72376000  5.61427000
   9.34105000  2.11141000  0.52637200
   7.24403000  1.34376000  5.59279000
   5.57977000  6.51145000  9.63556000
   6.48809000  8.84924000  2.90816000
   7.03692000  0.43111600  9.47930000
   6.16138000  2.75779000  7.69837000
   9.36879000  9.07551000  0.06137920
   3.12846000  6.27293000  4.17764000
   2.78981000  4.88242000 10.92310000
   0.95460700  4.38285000 12.18620000
   1.96442000  7.23882000  6.02018000
   9.96749000  6.37458000  5.66562000
   3.82802000  1.11646000  9.92508000
   3.92223000  9.16896000  2.76366000
   4.59906000  9.45882000 10.16620000
   2.08793000  9.38885000  6.12245000
   8.54471000  7.62986000  6.65002000
   0.32277200  1.92046000  7.22217000
   5.28689000  6.26617000  4.15878000
   4.01819000  6.43781000 11.82300000
   2.03428000  3.81881000  1.67932000
   1.85750000  5.75145000  9.17722000
   7.78959000  3.81541000  0.88819000
   7.88733000  5.70679000 10.11640000
   0.71756200  2.59257000 11.05790000
   9.76045000  6.56435000  3.56699000
   0.70645400  2.29737000  2.26343000
   8.03365000  0.61678200 11.97060000
   8.58650000  1.15043000  7.42008000
   4.76777000  1.99822000  5.72872000
   7.24010000  7.35564000  1.10652000
   8.11810000  3.93633000  8.87513000
   4.47555000  1.86919000  1.88529000
   5.47651000  2.45158000 10.02120000
   5.83567000  8.75706000  8.63414000
   4.26409000 10.20440000  0.93387300
   2.36073000  4.48976000  5.10132000
   5.38976000  5.00223000  7.47144000
   8.16459000  3.32633000  4.65265000
   1.08136000  9.13758000  9.31332000
   7.72736000  0.41284200  3.61546000
   0.83626100  7.58376000  0.31424300
 


--------------------------------------------------------------------------------------------------------


 k-point  1 :   0.0000 0.0000 0.0000  plane waves:   33049

 maximum and minimum number of plane-waves per node :      4138     4129

 maximum number of plane-waves:     33049
 maximum index in each direction: 
   IXMAX=   18   IYMAX=   18   IZMAX=   22
   IXMIN=  -18   IYMIN=  -18   IZMIN=  -22


 parallel 3D FFT for wavefunctions:
    minimum data exchange during FFTs selected (reduces bandwidth)
 parallel 3D FFT for charge:
    minimum data exchange during FFTs selected (reduces bandwidth)


 total amount of memory used by VASP MPI-rank0    42204. kBytes
=======================================================================

   base      :      30000. kBytes
   nonl-proj :       5360. kBytes
   fftplans  :       1886. kBytes
   grid      :       3386. kBytes
   one-center:         27. kBytes
   wavefun   :       1545. kBytes
 
     INWAV:  cpu time    0.0001: real time    0.0001
 Broyden mixing: mesh for mixing (old mesh)
   NGX = 37   NGY = 37   NGZ = 45
  (NGX  =112   NGY  =112   NGZ  =140)
  gives a total of  61605 points

 initial charge density was supplied:
 charge density of overlapping atoms calculated
 number of electron     300.0000000 magnetization 
 keeping initial charge density in first step


--------------------------------------------------------------------------------------------------------


 Maximum index for augmentation-charges          364 (set IRDMAX)


--------------------------------------------------------------------------------------------------------


 First call to EWALD:  gamma=   0.163
 Maximum number of real-space cells 3x 3x 2
 Maximum number of reciprocal cells 3x 3x 3

    FEWALD:  cpu time    0.0085: real time    0.0095


--------------------------------------- Iteration      1(   1)  ---------------------------------------


    POTLOK:  cpu time    0.0866: real time    0.1047
    SETDIJ:  cpu time    0.0160: real time    0.0178
    EDDIAG:  cpu time    0.2459: real time    0.2599
  RMM-DIIS:  cpu time    0.3425: real time    0.3439
    ORTHCH:  cpu time    0.0203: real time    0.0203
       DOS:  cpu time    0.0016: real time    0.0029
    --------------------------------------------
      LOOP:  cpu time    0.7132: real time    0.7496

 eigenvalue-minimisations  :   184
 total energy-change (2. order) :-0.1157780E+04  (-0.1470715E+05)
 number of electron     300.0000000 magnetization 
 augmentation part      300.0000000 magnetization 

 Free energy of the ion-electron system (eV)
  ---------------------------------------------------
  alpha Z        PSCENC =       256.70245505
  Ewald energy   TEWEN  =     -9928.73424166
  -Hartree energ DENC   =     -3348.70030552
  -exchange      EXHF   =         0.00000000
  -V(xc)+E(xc)   XCENC  =       790.93363043
  PAW double counting   =     10155.13001117   -10497.29644279
  entropy T*S    EENTRO =        -0.00000812
  eigenvalues    EBANDS =     -4518.31073019
  atomic energy  EATOM  =     15932.49537490
  Solvation  Ediel_sol  =         0.00000000
  ---------------------------------------------------
  free energy    TOTEN  =     -1157.78025673 eV

  energy without entropy =    -1157.78024861  energy(sigma->0) =    -1157.78025267


--------------------------------------------------------------------------------------------------------




--------------------------------------- Iteration      1(   2)  ---------------------------------------


    EDDIAG:  cpu time    0.1869: real time    0.1878
  RMM-DIIS:  cpu time    0.3252: real time    0.3252
    ORTHCH:  cpu time    0.0207: real time    0.0206
       DOS:  cpu time    0.0007: real time    0.0007
    --------------------------------------------
      LOOP:  cpu time    0.5335: real time    0.5342

 eigenvalue-minimisations  :   184
 total energy-change (2. order) : 0.1893072E+04  (-0.2295530E+04)
 number of electron     300.0000000 magnetization 
 augmentation part      300.0000000 magnetization 

 Free energy of the ion-electron system (eV)
  ---------------------------------------------------
  alpha Z        PSCENC =       256.70245505
  Ewald energy   TEWEN  =     -9928.73424166
  -Hartree energ DENC   =     -3348.70030552
  -exchange      EXHF   =         0.00000000
  -V(xc)+E(xc)   XCENC  =       790.93363043
  PAW double counting   =     10155.13001117   -10497.29644279
  entropy T*S    EENTRO =        -0.00000000
  eigenvalues    EBANDS =     -2625.23849854
  atomic energy  EATOM  =     15932.49537490
  Solvation  Ediel_sol  =         0.00000000
  ---------------------------------------------------
  free energy    TOTEN  =       735.29198305 eV

  energy without entropy =      735.29198305  energy(sigma->0) =      735.29198305


--------------------------------------------------------------------------------------------------------




--------------------------------------- Iteration      1(   3)  ---------------------------------------


    EDDIAG:  cpu time    0.1856: real time    0.1857
  RMM-DIIS:  cpu time    0.3243: real time    0.3248
    ORTHCH:  cpu time    0.0210: real time    0.0210
       DOS:  cpu time    0.0007: real time    0.0007
    --------------------------------------------
      LOOP:  cpu time    0.5318: real time    0.5358

 eigenvalue-minimisations  :   184
 total energy-change (2. order) :-0.4937820E+03  (-0.7248957E+03)
 number of electron     300.0000000 magnetization 
 augmentation part      300.0000000 magnetization 

 Free energy of the ion-electron system (eV)
  ---------------------------------------------------
  alpha Z        PSCENC =       256.70245505
  Ewald energy   TEWEN  =     -9928.73424166
  -Hartree energ DENC   =     -3348.70030552
  -exchange      EXHF   =         0.00000000
  -V(xc)+E(xc)   XCENC  =       790.93363043
  PAW double counting   =     10155.13001117   -10497.29644279
  entropy T*S    EENTRO =        -0.00000000
  eigenvalues    EBANDS =     -3119.02047402
  atomic energy  EATOM  =     15932.49537490
  Solvation  Ediel_sol  =         0.00000000
  ---------------------------------------------------
  free energy    TOTEN  =       241.51000757 eV

  energy without entropy =      241.51000757  energy(sigma->0) =      241.51000757


--------------------------------------------------------------------------------------------------------




--------------------------------------- Iteration      1(   4)  ---------------------------------------


    EDDIAG:  cpu time    0.1854: real time    0.1887
  RMM-DIIS:  cpu time    0.3252: real time    0.3254
    ORTHCH:  cpu time    0.0207: real time    0.0207
       DOS:  cpu time    0.0010: real time    0.0010
    --------------------------------------------
      LOOP:  cpu time    0.5321: real time    0.5321

 eigenvalue-minimisations  :   184
 total energy-change (2. order) :-0.2556153E+03  (-0.2578166E+03)
 number of electron     300.0000000 magnetization 
 augmentation part      300.0000000 magnetization 

 Free energy of the ion-electron system (eV)
  ---------------------------------------------------
  alpha Z        PSCENC =       256.70245505
  Ewald energy   TEWEN  =     -9928.73424166
  -Hartree energ DENC   =     -3348.70030552
  -exchange      EXHF   =         0.00000000
  -V(xc)+E(xc)   XCENC  =       790.93363043
  PAW double counting   =     10155.13001117   -10497.29644279
  entropy T*S    EENTRO =        -0.00285140
  eigenvalues    EBANDS =     -3374.63289430
  atomic energy  EATOM  =     15932.49537490
  Solvation  Ediel_sol  =         0.00000000
  ---------------------------------------------------
  free energy    TOTEN  =       -14.10526412 eV

  energy without entropy =      -14.10241272  energy(sigma->0) =      -14.10383842


--------------------------------------------------------------------------------------------------------




--------------------------------------- Iteration      1(   5)  ---------------------------------------


    EDDIAG:  cpu time    0.1825: real time    0.1824
  RMM-DIIS:  cpu time    0.3239: real time    0.3246
    ORTHCH:  cpu time    0.0209: real time    0.0209
       DOS:  cpu time    0.0007: real time    0.0007
    --------------------------------------------
      LOOP:  cpu time    0.5280: real time    0.5285

 eigenvalue-minimisations  :   184
 total energy-change (2. order) :-0.1110655E+03  (-0.1006029E+03)
 number of electron     300.0000000 magnetization 
 augmentation part      300.0000000 magnetization 

 Free energy of the ion-electron system (eV)
  ---------------------------------------------------
  alpha Z        PSCENC =       256.70245505
  Ewald energy   TEWEN  =     -9928.73424166
  -Hartree energ DENC   =     -3348.70030552
  -exchange      EXHF   =         0.00000000
  -V(xc)+E(xc)   XCENC  =       790.93363043
  PAW double counting   =     10155.13001117   -10497.29644279
  entropy T*S    EENTRO =        -0.00000000
  eigenvalues    EBANDS =     -3485.70121475
  atomic energy  EATOM  =     15932.49537490
  Solvation  Ediel_sol  =         0.00000000
  ---------------------------------------------------
  free energy    TOTEN  =      -125.17073317 eV

  energy without entropy =     -125.17073317  energy(sigma->0) =     -125.17073317


--------------------------------------------------------------------------------------------------------




--------------------------------------- Iteration      1(   6)  ---------------------------------------


    EDDIAG:  cpu time    0.1812: real time    0.1813
  RMM-DIIS:  cpu time    0.3237: real time    0.3234
    ORTHCH:  cpu time    0.0205: real time    0.0205
       DOS:  cpu time    0.0007: real time    0.0007
    --------------------------------------------
      LOOP:  cpu time    0.5260: real time    0.5258

 eigenvalue-minimisations  :   184
 total energy-change (2. order) :-0.4647440E+02  (-0.4308604E+02)
 number of electron     300.0000000 magnetization 
 augmentation part      300.0000000 magnetization 

 Free energy of the ion-electron system (eV)
  ---------------------------------------------------
  alpha Z        PSCENC =       256.70245505
  Ewald energy   TEWEN  =     -9928.73424166
  -Hartree energ DENC   =     -3348.70030552
  -exchange      EXHF   =         0.00000000
  -V(xc)+E(xc)   XCENC  =       790.93363043
  PAW double counting   =     10155.13001117   -10497.29644279
  entropy T*S    EENTRO =        -0.00000000
  eigenvalues    EBANDS =     -3532.17561555
  atomic energy  EATOM  =     15932.49537490
  Solvation  Ediel_sol  =         0.00000000
  ---------------------------------------------------
  free energy    TOTEN  =      -171.64513397 eV

  energy without entropy =     -171.64513397  energy(sigma->0) =     -171.64513397


--------------------------------------------------------------------------------------------------------




--------------------------------------- Iteration      1(   7)  ---------------------------------------


    EDDIAG:  cpu time    0.1800: real time    0.1807
  RMM-DIIS:  cpu time    0.3270: real time    0.3267
    ORTHCH:  cpu time    0.0212: real time    0.0211
       DOS:  cpu time    0.0007: real time    0.0007
    --------------------------------------------
      LOOP:  cpu time    0.5288: real time    0.5291

 eigenvalue-minimisations  :   184
 total energy-change (2. order) :-0.2250378E+02  (-0.2152965E+02)
 number of electron     300.0000000 magnetization 
 augmentation part      300.0000000 magnetization 

 Free energy of the ion-electron system (eV)
  ---------------------------------------------------
  alpha Z        PSCENC =       256.70245505
  Ewald energy   TEWEN  =     -9928.73424166
  -Hartree energ DENC   =     -3348.70030552
  -exchange      EXHF   =         0.00000000
  -V(xc)+E(xc)   XCENC  =       790.93363043
  PAW double counting   =     10155.13001117   -10497.29644279
  entropy T*S    EENTRO =        -0.00000000
  eigenvalues    EBANDS =     -3554.67939815
  atomic energy  EATOM  =     15932.49537490
  Solvation  Ediel_sol  =         0.00000000
  ---------------------------------------------------
  free energy    TOTEN  =      -194.14891656 eV

  energy without entropy =     -194.14891656  energy(sigma->0) =     -194.14891656


--------------------------------------------------------------------------------------------------------




--------------------------------------- Iteration      1(   8)  ---------------------------------------


    EDDIAG:  cpu time    0.1795: real time    0.1798
  RMM-DIIS:  cpu time    0.3213: real time    0.3219
    ORTHCH:  cpu time    0.0207: real time    0.0208
       DOS:  cpu time    0.0007: real time    0.0007
    --------------------------------------------
      LOOP:  cpu time    0.5222: real time    0.5232

 eigenvalue-minimisations  :   184
 total energy-change (2. order) :-0.1315945E+02  (-0.1235071E+02)
 number of electron     300.0000000 magnetization 
 augmentation part      300.0000000 magnetization 

 Free energy of the ion-electron system (eV)
  ---------------------------------------------------
  alpha Z        PSCENC =       256.70245505
  Ewald energy   TEWEN  =     -9928.73424166
  -Hartree energ DENC   =     -3348.70030552
  -exchange      EXHF   =         0.00000000
  -V(xc)+E(xc)   XCENC  =       790.93363043
  PAW double counting   =     10155.13001117   -10497.29644279
  entropy T*S    EENTRO =        -0.00000000
  eigenvalues    EBANDS =     -3567.83884420
  atomic energy  EATOM  =     15932.49537490
  Solvation  Ediel_sol  =         0.00000000
  ---------------------------------------------------
  free energy    TOTEN  =      -207.30836261 eV

  energy without entropy =     -207.30836261  energy(sigma->0) =     -207.30836261


--------------------------------------------------------------------------------------------------------




--------------------------------------- Iteration      1(   9)  ---------------------------------------


    EDDIAG:  cpu time    0.1812: real time    0.1810
  RMM-DIIS:  cpu time    1.1240: real time    1.1247
    ORTHCH:  cpu time    0.0292: real time    0.0292
       DOS:  cpu time    0.0007: real time    0.0007
    --------------------------------------------
      LOOP:  cpu time    1.3351: real time    1.3357

 eigenvalue-minimisations  :   668
 total energy-change (2. order) :-0.3471760E+02  (-0.3446405E+02)
 number of electron     300.0000000 magnetization 
 augmentation part      300.0000000 magnetization 

 Free energy of the ion-electron system (eV)
  ---------------------------------------------------
  alpha Z        PSCENC =       256.70245505
  Ewald energy   TEWEN  =     -9928.73424166
  -Hartree energ DENC   =     -3348.70030552
  -exchange      EXHF   =         0.00000000
  -V(xc)+E(xc)   XCENC  =       790.93363043
  PAW double counting   =     10155.13001117   -10497.29644279
  entropy T*S    EENTRO =        -0.00000000
  eigenvalues    EBANDS =     -3602.55644649
  atomic energy  EATOM  =     15932.49537490
  Solvation  Ediel_sol  =         0.00000000
  ---------------------------------------------------
  free energy    TOTEN  =      -242.02596491 eV

  energy without entropy =     -242.02596491  energy(sigma->0) =     -242.02596491


--------------------------------------------------------------------------------------------------------




--------------------------------------- Iteration      1(  10)  ---------------------------------------


    EDDIAG:  cpu time    0.1876: real time    0.1875
  RMM-DIIS:  cpu time    1.1213: real time    1.1395
    ORTHCH:  cpu time    0.0270: real time    0.0270
       DOS:  cpu time    0.0007: real time    0.0007
    --------------------------------------------
      LOOP:  cpu time    1.3365: real time    1.3546

 eigenvalue-minimisations  :   667
 total energy-change (2. order) :-0.1787535E+02  (-0.1761530E+02)
 number of electron     300.0000000 magnetization 
 augmentation part      300.0000000 magnetization 

 Free energy of the ion-electron system (eV)
  ---------------------------------------------------
  alpha Z        PSCENC =       256.70245505
  Ewald energy   TEWEN  =     -9928.73424166
  -Hartree energ DENC   =     -3348.70030552
  -exchange      EXHF   =         0.00000000
  -V(xc)+E(xc)   XCENC  =       790.93363043
  PAW double counting   =     10155.13001117   -10497.29644279
  entropy T*S    EENTRO =        -0.00000000
  eigenvalues    EBANDS =     -3620.43179852
  atomic energy  EATOM  =     15932.49537490
  Solvation  Ediel_sol  =         0.00000000
  ---------------------------------------------------
  free energy    TOTEN  =      -259.90131694 eV

  energy without entropy =     -259.90131694  energy(sigma->0) =     -259.90131694


--------------------------------------------------------------------------------------------------------




--------------------------------------- Iteration      1(  11)  ---------------------------------------


    EDDIAG:  cpu time    0.1885: real time    0.1885
  RMM-DIIS:  cpu time    1.2409: real time    1.2398
    ORTHCH:  cpu time    0.0355: real time    0.0355
       DOS:  cpu time    0.0008: real time    0.0008
    --------------------------------------------
      LOOP:  cpu time    1.4658: real time    1.4646

 eigenvalue-minimisations  :   646
 total energy-change (2. order) :-0.4035308E+01  (-0.4097748E+01)
 number of electron     300.0000000 magnetization 
 augmentation part      300.0000000 magnetization 

 Free energy of the ion-electron system (eV)
  ---------------------------------------------------
  alpha Z        PSCENC =       256.70245505
  Ewald energy   TEWEN  =     -9928.73424166
  -Hartree energ DENC   =     -3348.70030552
  -exchange      EXHF   =         0.00000000
  -V(xc)+E(xc)   XCENC  =       790.93363043
  PAW double counting   =     10155.13001117   -10497.29644279
  entropy T*S    EENTRO =        -0.00000000
  eigenvalues    EBANDS =     -3624.46710649
  atomic energy  EATOM  =     15932.49537490
  Solvation  Ediel_sol  =         0.00000000
  ---------------------------------------------------
  free energy    TOTEN  =      -263.93662490 eV

  energy without entropy =     -263.93662490  energy(sigma->0) =     -263.93662490


--------------------------------------------------------------------------------------------------------




--------------------------------------- Iteration      1(  12)  ---------------------------------------


    EDDIAG:  cpu time    0.2191: real time    0.2189
  RMM-DIIS:  cpu time    1.1081: real time    1.1073
    ORTHCH:  cpu time    0.0279: real time    0.0279
       DOS:  cpu time    0.0008: real time    0.0008
    CHARGE:  cpu time    0.0433: real time    0.0461
    MIXING:  cpu time    0.0060: real time    0.0093
    --------------------------------------------
      LOOP:  cpu time    1.4052: real time    1.4104

 eigenvalue-minimisations  :   634
 total energy-change (2. order) :-0.2110173E+01  (-0.2104285E+01)
 number of electron     299.9999718 magnetization 
 augmentation part        2.0161059 magnetization 

 Broyden mixing:
  rms(total) = 0.36105E+01    rms(broyden)= 0.36089E+01
  rms(prec ) = 0.38910E+01
  weight for this iteration     100.00

 Free energy of the ion-electron system (eV)
  ---------------------------------------------------
  alpha Z        PSCENC =       256.70245505
  Ewald energy   TEWEN  =     -9928.73424166
  -Hartree energ DENC   =     -3348.70030552
  -exchange      EXHF   =         0.00000000
  -V(xc)+E(xc)   XCENC  =       790.93363043
  PAW double counting   =     10155.13001117   -10497.29644279
  entropy T*S    EENTRO =        -0.00000000
  eigenvalues    EBANDS =     -3626.57727955
  atomic energy  EATOM  =     15932.49537490
  Solvation  Ediel_sol  =         0.00000000
  ---------------------------------------------------
  free energy    TOTEN  =      -266.04679796 eV

  energy without entropy =     -266.04679796  energy(sigma->0) =     -266.04679796


--------------------------------------------------------------------------------------------------------




--------------------------------------- Iteration      1(  13)  ---------------------------------------


    POTLOK:  cpu time    0.0702: real time    0.0702
    SETDIJ:  cpu time    0.0148: real time    0.0148
    EDDIAG:  cpu time    0.1829: real time    0.1829
  RMM-DIIS:  cpu time    0.8570: real time    0.8562
    ORTHCH:  cpu time    0.0260: real time    0.0260
       DOS:  cpu time    0.0009: real time    0.0009
    CHARGE:  cpu time    0.0401: real time    0.0400
    MIXING:  cpu time    0.0039: real time    0.0046
    --------------------------------------------
      LOOP:  cpu time    1.1957: real time    1.1955

 eigenvalue-minimisations  :   495
 total energy-change (2. order) : 0.9242988E+01  (-0.2308041E+01)
 number of electron     299.9999721 magnetization 
 augmentation part        2.1556369 magnetization 

 Broyden mixing:
  rms(total) = 0.23561E+01    rms(broyden)= 0.23561E+01
  rms(prec ) = 0.24607E+01
  weight for this iteration     100.00

 eigenvalues of (default mixing * dielectric matrix)
  average eigenvalue GAMMA=   2.2399
  2.2399

 Free energy of the ion-electron system (eV)
  ---------------------------------------------------
  alpha Z        PSCENC =       256.70245505
  Ewald energy   TEWEN  =     -9928.73424166
  -Hartree energ DENC   =     -3428.36222151
  -exchange      EXHF   =         0.00000000
  -V(xc)+E(xc)   XCENC  =       796.82563826
  PAW double counting   =     13707.68536981   -14056.18039325
  entropy T*S    EENTRO =        -0.00000000
  eigenvalues    EBANDS =     -3537.23579156
  atomic energy  EATOM  =     15932.49537490
  Solvation  Ediel_sol  =         0.00000000
  ---------------------------------------------------
  free energy    TOTEN  =      -256.80380997 eV

  energy without entropy =     -256.80380997  energy(sigma->0) =     -256.80380997


--------------------------------------------------------------------------------------------------------




--------------------------------------- Iteration      1(  14)  ---------------------------------------


    POTLOK:  cpu time    0.0695: real time    0.0696
    SETDIJ:  cpu time    0.0147: real time    0.0147
    EDDIAG:  cpu time    0.1831: real time    0.1830
  RMM-DIIS:  cpu time    0.8887: real time    0.8880
    ORTHCH:  cpu time    0.0267: real time    0.0267
       DOS:  cpu time    0.0010: real time    0.0010
    CHARGE:  cpu time    0.0399: real time    0.0398
    MIXING:  cpu time    0.0035: real time    0.0035
    --------------------------------------------
      LOOP:  cpu time    1.2271: real time    1.2264

 eigenvalue-minimisations  :   518
 total energy-change (2. order) : 0.1090371E+01  (-0.1845576E+01)
 number of electron     299.9999724 magnetization 
 augmentation part        1.9673333 magnetization 

 Broyden mixing:
  rms(total) = 0.67664E+00    rms(broyden)= 0.67653E+00
  rms(prec ) = 0.72108E+00
  weight for this iteration     100.00

 eigenvalues of (default mixing * dielectric matrix)
  average eigenvalue GAMMA=   1.9179
  1.4330  2.4028

 Free energy of the ion-electron system (eV)
  ---------------------------------------------------
  alpha Z        PSCENC =       256.70245505
  Ewald energy   TEWEN  =     -9928.73424166
  -Hartree energ DENC   =     -3506.95404059
  -exchange      EXHF   =         0.00000000
  -V(xc)+E(xc)   XCENC  =       802.96080946
  PAW double counting   =     20377.98564854   -20733.95928740
  entropy T*S    EENTRO =        -0.00000000
  eigenvalues    EBANDS =     -3456.21015690
  atomic energy  EATOM  =     15932.49537490
  Solvation  Ediel_sol  =         0.00000000
  ---------------------------------------------------
  free energy    TOTEN  =      -255.71343860 eV

  energy without entropy =     -255.71343860  energy(sigma->0) =     -255.71343860


--------------------------------------------------------------------------------------------------------




--------------------------------------- Iteration      1(  15)  ---------------------------------------


    POTLOK:  cpu time    0.0697: real time    0.0698
    SETDIJ:  cpu time    0.0149: real time    0.0148
    EDDIAG:  cpu time    0.1824: real time    0.1824
  RMM-DIIS:  cpu time    1.0113: real time    1.0104
    ORTHCH:  cpu time    0.0271: real time    0.0270
       DOS:  cpu time    0.0008: real time    0.0008
    CHARGE:  cpu time    0.0396: real time    0.0396
    MIXING:  cpu time    0.0035: real time    0.0035
    --------------------------------------------
      LOOP:  cpu time    1.3494: real time    1.3484

 eigenvalue-minimisations  :   586
 total energy-change (2. order) :-0.1234175E+00  (-0.4126300E+00)
 number of electron     299.9999727 magnetization 
 augmentation part        1.6176573 magnetization 

 Broyden mixing:
  rms(total) = 0.16533E+00    rms(broyden)= 0.16490E+00
  rms(prec ) = 0.18605E+00
  weight for this iteration     100.00

 eigenvalues of (default mixing * dielectric matrix)
  average eigenvalue GAMMA=   1.5984
  2.3515  1.2219  1.2219

 Free energy of the ion-electron system (eV)
  ---------------------------------------------------
  alpha Z        PSCENC =       256.70245505
  Ewald energy   TEWEN  =     -9928.73424166
  -Hartree energ DENC   =     -3508.17719399
  -exchange      EXHF   =         0.00000000
  -V(xc)+E(xc)   XCENC  =       803.26530445
  PAW double counting   =     22210.68004903   -22568.89667198
  entropy T*S    EENTRO =        -0.00000000
  eigenvalues    EBANDS =     -3453.17193189
  atomic energy  EATOM  =     15932.49537490
  Solvation  Ediel_sol  =         0.00000000
  ---------------------------------------------------
  free energy    TOTEN  =      -255.83685608 eV

  energy without entropy =     -255.83685608  energy(sigma->0) =     -255.83685608


--------------------------------------------------------------------------------------------------------




--------------------------------------- Iteration      1(  16)  ---------------------------------------


    POTLOK:  cpu time    0.0696: real time    0.0696
    SETDIJ:  cpu time    0.0148: real time    0.0148
    EDDIAG:  cpu time    0.1831: real time    0.1830
  RMM-DIIS:  cpu time    1.0713: real time    1.0705
    ORTHCH:  cpu time    0.0279: real time    0.0279
       DOS:  cpu time    0.0010: real time    0.0010
    CHARGE:  cpu time    0.0397: real time    0.0396
    MIXING:  cpu time    0.0036: real time    0.0036
    --------------------------------------------
      LOOP:  cpu time    1.4110: real time    1.4100

 eigenvalue-minimisations  :   632
 total energy-change (2. order) :-0.1012380E+00  (-0.1417036E+00)
 number of electron     299.9999728 magnetization 
 augmentation part        1.4001820 magnetization 

 Broyden mixing:
  rms(total) = 0.13129E+00    rms(broyden)= 0.13095E+00
  rms(prec ) = 0.14328E+00
  weight for this iteration     100.00

 eigenvalues of (default mixing * dielectric matrix)
  average eigenvalue GAMMA=   1.7751
  1.0991  2.0725  2.0725  1.8565

 Free energy of the ion-electron system (eV)
  ---------------------------------------------------
  alpha Z        PSCENC =       256.70245505
  Ewald energy   TEWEN  =     -9928.73424166
  -Hartree energ DENC   =     -3510.03189298
  -exchange      EXHF   =         0.00000000
  -V(xc)+E(xc)   XCENC  =       803.46682958
  PAW double counting   =     22114.62402947   -22473.10061956
  entropy T*S    EENTRO =        -0.00000000
  eigenvalues    EBANDS =     -3451.36002885
  atomic energy  EATOM  =     15932.49537490
  Solvation  Ediel_sol  =         0.00000000
  ---------------------------------------------------
  free energy    TOTEN  =      -255.93809405 eV

  energy without entropy =     -255.93809405  energy(sigma->0) =     -255.93809405


--------------------------------------------------------------------------------------------------------




--------------------------------------- Iteration      1(  17)  ---------------------------------------


    POTLOK:  cpu time    0.0682: real time    0.0683
    SETDIJ:  cpu time    0.0148: real time    0.0147
    EDDIAG:  cpu time    0.1817: real time    0.1817
  RMM-DIIS:  cpu time    1.0608: real time    1.0598
    ORTHCH:  cpu time    0.0270: real time    0.0270
       DOS:  cpu time    0.0008: real time    0.0008
    CHARGE:  cpu time    0.0401: real time    0.0400
    MIXING:  cpu time    0.0037: real time    0.0038
    --------------------------------------------
      LOOP:  cpu time    1.3972: real time    1.3961

 eigenvalue-minimisations  :   611
 total energy-change (2. order) :-0.8542335E-01  (-0.8173697E-01)
 number of electron     299.9999729 magnetization 
 augmentation part        1.2919942 magnetization 

 Broyden mixing:
  rms(total) = 0.46450E-01    rms(broyden)= 0.46081E-01
  rms(prec ) = 0.53009E-01
  weight for this iteration     100.00

 eigenvalues of (default mixing * dielectric matrix)
  average eigenvalue GAMMA=   1.7838
  2.3918  2.3918  0.9439  1.8577  1.3337

 Free energy of the ion-electron system (eV)
  ---------------------------------------------------
  alpha Z        PSCENC =       256.70245505
  Ewald energy   TEWEN  =     -9928.73424166
  -Hartree energ DENC   =     -3515.37158251
  -exchange      EXHF   =         0.00000000
  -V(xc)+E(xc)   XCENC  =       803.97657852
  PAW double counting   =     21990.73563180   -22349.63114428
  entropy T*S    EENTRO =        -0.00000000
  eigenvalues    EBANDS =     -3446.19658921
  atomic energy  EATOM  =     15932.49537490
  Solvation  Ediel_sol  =         0.00000000
  ---------------------------------------------------
  free energy    TOTEN  =      -256.02351740 eV

  energy without entropy =     -256.02351740  energy(sigma->0) =     -256.02351740


--------------------------------------------------------------------------------------------------------




--------------------------------------- Iteration      1(  18)  ---------------------------------------


    POTLOK:  cpu time    0.0692: real time    0.0692
    SETDIJ:  cpu time    0.0147: real time    0.0147
    EDDIAG:  cpu time    0.1824: real time    0.1822
  RMM-DIIS:  cpu time    1.0735: real time    1.0726
    ORTHCH:  cpu time    0.0337: real time    0.0337
       DOS:  cpu time    0.0010: real time    0.0010
    CHARGE:  cpu time    0.0501: real time    0.0501
    MIXING:  cpu time    0.0047: real time    0.0047
    --------------------------------------------
      LOOP:  cpu time    1.4293: real time    1.4283

 eigenvalue-minimisations  :   608
 total energy-change (2. order) :-0.5901060E-01  (-0.5961664E-01)
 number of electron     299.9999730 magnetization 
 augmentation part        1.2107992 magnetization 

 Broyden mixing:
  rms(total) = 0.21211E-01    rms(broyden)= 0.20639E-01
  rms(prec ) = 0.24129E-01
  weight for this iteration     100.00

 eigenvalues of (default mixing * dielectric matrix)
  average eigenvalue GAMMA=   1.6725
  2.6429  2.6429  1.5369  1.5369  0.9955  0.6798

 Free energy of the ion-electron system (eV)
  ---------------------------------------------------
  alpha Z        PSCENC =       256.70245505
  Ewald energy   TEWEN  =     -9928.73424166
  -Hartree energ DENC   =     -3519.29843080
  -exchange      EXHF   =         0.00000000
  -V(xc)+E(xc)   XCENC  =       804.28018801
  PAW double counting   =     21993.63844400   -22352.39583996
  entropy T*S    EENTRO =        -0.00000000
  eigenvalues    EBANDS =     -3442.77047755
  atomic energy  EATOM  =     15932.49537490
  Solvation  Ediel_sol  =         0.00000000
  ---------------------------------------------------
  free energy    TOTEN  =      -256.08252800 eV

  energy without entropy =     -256.08252800  energy(sigma->0) =     -256.08252800


--------------------------------------------------------------------------------------------------------




--------------------------------------- Iteration      1(  19)  ---------------------------------------


    POTLOK:  cpu time    0.0807: real time    0.0807
    SETDIJ:  cpu time    0.0163: real time    0.0163
    EDDIAG:  cpu time    0.2066: real time    0.2064
  RMM-DIIS:  cpu time    1.1430: real time    1.1421
    ORTHCH:  cpu time    0.0280: real time    0.0280
       DOS:  cpu time    0.0011: real time    0.0011
    CHARGE:  cpu time    0.0404: real time    0.0403
    MIXING:  cpu time    0.0041: real time    0.0041
    --------------------------------------------
      LOOP:  cpu time    1.5201: real time    1.5190

 eigenvalue-minimisations  :   620
 total energy-change (2. order) :-0.3945408E-01  (-0.3998912E-01)
 number of electron     299.9999730 magnetization 
 augmentation part        1.1332868 magnetization 

 Broyden mixing:
  rms(total) = 0.21428E-01    rms(broyden)= 0.20980E-01
  rms(prec ) = 0.22917E-01
  weight for this iteration     100.00

 eigenvalues of (default mixing * dielectric matrix)
  average eigenvalue GAMMA=   1.5202
  2.6091  2.6091  1.5759  1.5759  0.9824  0.6444  0.6444

 Free energy of the ion-electron system (eV)
  ---------------------------------------------------
  alpha Z        PSCENC =       256.70245505
  Ewald energy   TEWEN  =     -9928.73424166
  -Hartree energ DENC   =     -3520.66847627
  -exchange      EXHF   =         0.00000000
  -V(xc)+E(xc)   XCENC  =       804.38267640
  PAW double counting   =     21972.26967022   -22330.72311218
  entropy T*S    EENTRO =        -0.00000000
  eigenvalues    EBANDS =     -3441.84632853
  atomic energy  EATOM  =     15932.49537490
  Solvation  Ediel_sol  =         0.00000000
  ---------------------------------------------------
  free energy    TOTEN  =      -256.12198207 eV

  energy without entropy =     -256.12198207  energy(sigma->0) =     -256.12198207


--------------------------------------------------------------------------------------------------------




--------------------------------------- Iteration      1(  20)  ---------------------------------------


    POTLOK:  cpu time    0.0697: real time    0.0698
    SETDIJ:  cpu time    0.0147: real time    0.0146
    EDDIAG:  cpu time    0.1808: real time    0.1808
  RMM-DIIS:  cpu time    1.1071: real time    1.1061
    ORTHCH:  cpu time    0.0281: real time    0.0282
       DOS:  cpu time    0.0010: real time    0.0010
    CHARGE:  cpu time    0.0408: real time    0.0406
    MIXING:  cpu time    0.0043: real time    0.0043
    --------------------------------------------
      LOOP:  cpu time    1.4466: real time    1.4455

 eigenvalue-minimisations  :   637
 total energy-change (2. order) :-0.1904999E-01  (-0.1963498E-01)
 number of electron     299.9999731 magnetization 
 augmentation part        1.0922109 magnetization 

 Broyden mixing:
  rms(total) = 0.26614E-01    rms(broyden)= 0.26462E-01
  rms(prec ) = 0.29038E-01
  weight for this iteration     100.00

 eigenvalues of (default mixing * dielectric matrix)
  average eigenvalue GAMMA=   1.5144
  2.5515  2.5515  1.1778  1.7961  1.4658  0.9766  0.7979  0.7979

 Free energy of the ion-electron system (eV)
  ---------------------------------------------------
  alpha Z        PSCENC =       256.70245505
  Ewald energy   TEWEN  =     -9928.73424166
  -Hartree energ DENC   =     -3520.90571413
  -exchange      EXHF   =         0.00000000
  -V(xc)+E(xc)   XCENC  =       804.39793283
  PAW double counting   =     21982.69880844   -22340.99193518
  entropy T*S    EENTRO =        -0.00000000
  eigenvalues    EBANDS =     -3441.80371232
  atomic energy  EATOM  =     15932.49537490
  Solvation  Ediel_sol  =         0.00000000
  ---------------------------------------------------
  free energy    TOTEN  =      -256.14103207 eV

  energy without entropy =     -256.14103207  energy(sigma->0) =     -256.14103207


--------------------------------------------------------------------------------------------------------




--------------------------------------- Iteration      1(  21)  ---------------------------------------


    POTLOK:  cpu time    0.0690: real time    0.0689
    SETDIJ:  cpu time    0.0147: real time    0.0147
    EDDIAG:  cpu time    0.1803: real time    0.1802
  RMM-DIIS:  cpu time    1.0744: real time    1.0734
    ORTHCH:  cpu time    0.0284: real time    0.0284
       DOS:  cpu time    0.0009: real time    0.0009
    CHARGE:  cpu time    0.0402: real time    0.0401
    MIXING:  cpu time    0.0047: real time    0.0047
    --------------------------------------------
      LOOP:  cpu time    1.4124: real time    1.4112

 eigenvalue-minimisations  :   616
 total energy-change (2. order) :-0.1373459E-01  (-0.1549754E-01)
 number of electron     299.9999731 magnetization 
 augmentation part        1.0560783 magnetization 

 Broyden mixing:
  rms(total) = 0.46664E-01    rms(broyden)= 0.46599E-01
  rms(prec ) = 0.51240E-01
  weight for this iteration     100.00

 eigenvalues of (default mixing * dielectric matrix)
  average eigenvalue GAMMA=   1.5645
  2.7098  2.7098  2.4523  1.0451  1.0451  1.2752  1.2752  0.9431  0.6252

 Free energy of the ion-electron system (eV)
  ---------------------------------------------------
  alpha Z        PSCENC =       256.70245505
  Ewald energy   TEWEN  =     -9928.73424166
  -Hartree energ DENC   =     -3520.85601261
  -exchange      EXHF   =         0.00000000
  -V(xc)+E(xc)   XCENC  =       804.38512975
  PAW double counting   =     21980.00050994   -22338.53468473
  entropy T*S    EENTRO =        -0.00000000
  eigenvalues    EBANDS =     -3441.61329730
  atomic energy  EATOM  =     15932.49537490
  Solvation  Ediel_sol  =         0.00000000
  ---------------------------------------------------
  free energy    TOTEN  =      -256.15476666 eV

  energy without entropy =     -256.15476666  energy(sigma->0) =     -256.15476666


--------------------------------------------------------------------------------------------------------




--------------------------------------- Iteration      1(  22)  ---------------------------------------


    POTLOK:  cpu time    0.0693: real time    0.0693
    SETDIJ:  cpu time    0.0147: real time    0.0147
    EDDIAG:  cpu time    0.1813: real time    0.1811
  RMM-DIIS:  cpu time    1.0530: real time    1.0520
    ORTHCH:  cpu time    0.0277: real time    0.0277
       DOS:  cpu time    0.0011: real time    0.0011
    CHARGE:  cpu time    0.0402: real time    0.0402
    MIXING:  cpu time    0.0048: real time    0.0048
    --------------------------------------------
      LOOP:  cpu time    1.3921: real time    1.3909

 eigenvalue-minimisations  :   608
 total energy-change (2. order) :-0.7712087E-02  (-0.7995216E-02)
 number of electron     299.9999731 magnetization 
 augmentation part        1.0266125 magnetization 

 Broyden mixing:
  rms(total) = 0.24013E-01    rms(broyden)= 0.23965E-01
  rms(prec ) = 0.26176E-01
  weight for this iteration     100.00

 eigenvalues of (default mixing * dielectric matrix)
  average eigenvalue GAMMA=   1.5812
  3.5515  2.4007  2.4007  1.3740  1.3740  1.3107  1.3107  0.9167  0.5867  0.5867

 Free energy of the ion-electron system (eV)
  ---------------------------------------------------
  alpha Z        PSCENC =       256.70245505
  Ewald energy   TEWEN  =     -9928.73424166
  -Hartree energ DENC   =     -3522.44970422
  -exchange      EXHF   =         0.00000000
  -V(xc)+E(xc)   XCENC  =       804.51073064
  PAW double counting   =     21981.68537794   -22339.23485978
  entropy T*S    EENTRO =        -0.00000000
  eigenvalues    EBANDS =     -3441.13761162
  atomic energy  EATOM  =     15932.49537490
  Solvation  Ediel_sol  =         0.00000000
  ---------------------------------------------------
  free energy    TOTEN  =      -256.16247874 eV

  energy without entropy =     -256.16247874  energy(sigma->0) =     -256.16247874


--------------------------------------------------------------------------------------------------------




--------------------------------------- Iteration      1(  23)  ---------------------------------------


    POTLOK:  cpu time    0.0689: real time    0.0690
    SETDIJ:  cpu time    0.0148: real time    0.0147
    EDDIAG:  cpu time    0.1831: real time    0.1830
  RMM-DIIS:  cpu time    1.1027: real time    1.1018
    ORTHCH:  cpu time    0.0266: real time    0.0266
       DOS:  cpu time    0.0007: real time    0.0007
    CHARGE:  cpu time    0.0405: real time    0.0405
    MIXING:  cpu time    0.0050: real time    0.0050
    --------------------------------------------
      LOOP:  cpu time    1.4423: real time    1.4412

 eigenvalue-minimisations  :   638
 total energy-change (2. order) :-0.5493223E-02  (-0.6278953E-02)
 number of electron     299.9999732 magnetization 
 augmentation part        1.0011041 magnetization 

 Broyden mixing:
  rms(total) = 0.13431E-01    rms(broyden)= 0.13365E-01
  rms(prec ) = 0.14270E-01
  weight for this iteration     100.00

 eigenvalues of (default mixing * dielectric matrix)
  average eigenvalue GAMMA=   1.4377
  3.5503  2.3988  2.3988  1.3711  1.3711  1.3116  1.3116  0.9167  0.5879  0.5879
  0.0087

 Free energy of the ion-electron system (eV)
  ---------------------------------------------------
  alpha Z        PSCENC =       256.70245505
  Ewald energy   TEWEN  =     -9928.73424166
  -Hartree energ DENC   =     -3522.73931846
  -exchange      EXHF   =         0.00000000
  -V(xc)+E(xc)   XCENC  =       804.54190965
  PAW double counting   =     21993.38754853   -22350.56837817
  entropy T*S    EENTRO =        -0.00000000
  eigenvalues    EBANDS =     -3441.25332180
  atomic energy  EATOM  =     15932.49537490
  Solvation  Ediel_sol  =         0.00000000
  ---------------------------------------------------
  free energy    TOTEN  =      -256.16797197 eV

  energy without entropy =     -256.16797197  energy(sigma->0) =     -256.16797197


--------------------------------------------------------------------------------------------------------




--------------------------------------- Iteration      1(  24)  ---------------------------------------


    POTLOK:  cpu time    0.0694: real time    0.0694
    SETDIJ:  cpu time    0.0149: real time    0.0149
    EDDIAG:  cpu time    0.1770: real time    0.1770
  RMM-DIIS:  cpu time    1.1120: real time    1.1111
    ORTHCH:  cpu time    0.0265: real time    0.0264
       DOS:  cpu time    0.0007: real time    0.0007
    CHARGE:  cpu time    0.0405: real time    0.0405
    MIXING:  cpu time    0.0050: real time    0.0050
    --------------------------------------------
      LOOP:  cpu time    1.4460: real time    1.4450

 eigenvalue-minimisations  :   638
 total energy-change (2. order) :-0.3735407E-02  (-0.3976057E-02)
 number of electron     299.9999732 magnetization 
 augmentation part        0.9855572 magnetization 

 Broyden mixing:
  rms(total) = 0.15706E-01    rms(broyden)= 0.15668E-01
  rms(prec ) = 0.16979E-01
  weight for this iteration     100.00

 eigenvalues of (default mixing * dielectric matrix)
  average eigenvalue GAMMA=   1.3983
  3.7283  2.3944  2.3944  1.4043  1.4043  1.2870  1.2870  0.9354  0.5957  0.5957
  0.3764  0.3764

 Free energy of the ion-electron system (eV)
  ---------------------------------------------------
  alpha Z        PSCENC =       256.70245505
  Ewald energy   TEWEN  =     -9928.73424166
  -Hartree energ DENC   =     -3522.81387298
  -exchange      EXHF   =         0.00000000
  -V(xc)+E(xc)   XCENC  =       804.54836963
  PAW double counting   =     21994.45042908   -22351.58110244
  entropy T*S    EENTRO =        -0.00000000
  eigenvalues    EBANDS =     -3441.23911896
  atomic energy  EATOM  =     15932.49537490
  Solvation  Ediel_sol  =         0.00000000
  ---------------------------------------------------
  free energy    TOTEN  =      -256.17170737 eV

  energy without entropy =     -256.17170737  energy(sigma->0) =     -256.17170737


--------------------------------------------------------------------------------------------------------




--------------------------------------- Iteration      1(  25)  ---------------------------------------


    POTLOK:  cpu time    0.0697: real time    0.0695
    SETDIJ:  cpu time    0.0147: real time    0.0147
    EDDIAG:  cpu time    0.1787: real time    0.1786
  RMM-DIIS:  cpu time    1.1759: real time    1.1750
    ORTHCH:  cpu time    0.0317: real time    0.0317
[...]
      direct lattice vectors                 reciprocal lattice vectors
    10.250000000  0.000000000  0.000000000     0.097560976  0.000000000  0.000000000
     0.000000000 10.250000000  0.000000000     0.000000000  0.097560976  0.000000000
     0.000000000  0.000000000 12.350000000     0.000000000  0.000000000  0.080971660

  length of vectors
    10.250000000 10.250000000 12.350000000     0.097560976  0.097560976  0.080971660


 FORCES acting on ions
    electron-ion (+dipol)            ewald-force                    non-local-force                 convergence-correction
 -----------------------------------------------------------------------------------------------
   -.514E+01 0.164E+02 0.773E+01   0.704E+01 -.157E+02 -.725E+01   -.185E+01 -.779E+00 -.628E+00   0.159E-03 0.195E-03 0.151E-04
   -.531E+01 -.288E+02 0.322E+02   0.579E+01 0.291E+02 -.320E+02   -.423E+00 -.545E+00 -.119E+00   -.654E-04 -.916E-04 0.711E-04
   0.137E+01 0.504E+02 0.908E+01   -.193E+01 -.495E+02 -.883E+01   0.767E+00 -.892E+00 -.194E+00   -.456E-04 0.673E-04 0.632E-04
   -.996E+01 -.335E+02 -.146E+02   0.916E+01 0.330E+02 0.153E+02   0.783E+00 0.541E+00 -.443E+00   -.885E-04 -.192E-04 -.194E-04
   0.307E+02 0.292E+02 -.171E+02   -.298E+02 -.287E+02 0.172E+02   -.936E+00 -.480E+00 0.189E-02   0.162E-03 0.116E-03 -.216E-04
   -.207E+02 -.269E+02 0.141E+02   0.191E+02 0.259E+02 -.144E+02   0.145E+01 0.875E+00 0.256E+00   -.188E-03 -.139E-03 -.406E-04
   0.182E+02 -.583E+01 -.304E+02   -.171E+02 0.737E+01 0.288E+02   -.136E+01 -.174E+01 0.154E+01   -.103E-03 0.128E-04 -.250E-03
   0.996E+01 0.252E+02 -.214E+02   -.106E+02 -.238E+02 0.217E+02   0.567E+00 -.126E+01 -.663E+00   0.460E-03 0.114E-03 0.107E-03
   0.185E+02 0.104E+02 0.257E+02   -.188E+02 -.102E+02 -.259E+02   0.286E+00 -.220E+00 -.423E-01   0.108E-03 0.101E-06 -.160E-03
   -.113E+02 -.128E+02 -.845E+01   0.107E+02 0.119E+02 0.806E+01   0.253E+00 0.150E+01 0.164E+00   -.226E-03 -.944E-04 -.348E-03
   -.136E+02 0.287E+02 0.981E+01   0.123E+02 -.273E+02 -.101E+02   0.111E+01 -.146E+01 0.400E+00   0.350E-03 -.142E-03 -.956E-05
   -.693E+01 -.140E+02 0.604E+01   0.572E+01 0.138E+02 -.570E+01   0.111E+01 -.266E+00 -.470E+00   -.283E-03 -.227E-03 0.926E-04
   -.245E+02 -.698E+01 0.307E+02   0.239E+02 0.629E+01 -.308E+02   0.769E+00 0.922E+00 -.601E+00   -.212E-03 0.647E-04 0.221E-03
   0.659E+01 -.257E+01 -.139E+02   -.755E+01 0.314E+01 0.139E+02   0.711E+00 -.529E+00 0.147E+00   -.664E-04 0.615E-06 -.687E-04
   0.247E+02 -.690E+01 -.591E+01   -.231E+02 0.688E+01 0.598E+01   -.135E+01 -.524E+00 0.726E-01   0.646E-03 -.757E-04 -.499E-05
   -.989E+01 0.258E+02 -.856E+00   0.983E+01 -.255E+02 0.173E+01   0.386E+00 -.652E+00 -.197E+00   0.169E-04 0.217E-03 0.428E-03
   0.283E+02 0.356E+01 0.328E+01   -.264E+02 -.291E+01 -.247E+01   -.165E+01 -.601E+00 -.829E+00   0.261E-03 0.717E-04 0.497E-04
   -.124E+02 0.405E+00 0.250E+02   0.120E+02 -.144E+01 -.247E+02   0.609E+00 0.153E+01 -.597E+00   0.169E-03 -.255E-03 0.138E-03
   0.177E+02 0.120E+02 0.420E+01   -.164E+02 -.111E+02 -.340E+01   -.133E+01 -.505E+00 -.103E+01   0.338E-03 -.143E-04 -.131E-03
   -.735E+01 -.284E+02 -.416E+01   0.705E+01 0.280E+02 0.377E+01   0.374E+00 0.642E+00 0.385E+00   0.881E-04 -.170E-03 -.113E-03
   0.274E+02 -.138E+01 -.426E+01   -.259E+02 0.195E+01 0.256E+01   -.151E+01 -.983E+00 0.181E+01   0.307E-04 -.142E-03 0.371E-04
   0.142E+02 -.139E+02 -.482E+01   -.144E+02 0.137E+02 0.471E+01   0.165E-01 0.281E+00 0.199E+00   0.130E-03 0.300E-04 -.177E-03
   -.136E+02 0.929E+01 -.571E+01   0.134E+02 -.955E+01 0.681E+01   -.320E-02 0.319E+00 -.853E+00   -.267E-03 0.198E-03 -.687E-04
   -.116E+02 0.376E+02 -.178E+02   0.101E+02 -.378E+02 0.171E+02   0.157E+01 0.423E+00 0.752E+00   -.439E-03 0.896E-04 0.650E-05
   0.680E+01 0.378E+02 -.172E+02   -.589E+01 -.373E+02 0.169E+02   -.856E+00 -.250E+00 -.601E-02   -.344E-03 0.173E-03 0.258E-05
   0.124E+02 -.989E+01 0.670E+00   -.111E+02 0.102E+02 -.494E+00   -.135E+01 -.434E+00 -.191E+00   0.118E-04 -.130E-03 0.182E-04
   -.183E+02 0.178E+02 -.322E+02   0.188E+02 -.181E+02 0.311E+02   -.342E+00 -.213E+00 0.102E+01   -.113E-03 0.135E-04 0.141E-03
   -.264E+02 0.273E+02 0.132E+02   0.263E+02 -.278E+02 -.125E+02   0.294E+00 0.264E+00 -.285E+00   -.173E-03 0.207E-03 -.200E-04
   0.784E+01 0.249E+02 0.148E+02   -.874E+01 -.243E+02 -.141E+02   0.787E+00 -.447E+00 -.647E+00   -.176E-05 0.203E-04 -.242E-03
   -.136E+02 -.946E+01 -.900E+01   0.120E+02 0.110E+02 0.871E+01   0.127E+01 -.154E+01 0.417E+00   -.212E-03 -.161E-03 0.270E-03
   -.104E+01 -.496E+02 0.346E+02   -.568E+01 0.537E+02 -.443E+02   0.607E+01 -.402E+01 0.959E+01   0.246E-03 -.273E-03 0.249E-03
   -.482E+02 0.410E+02 0.930E+01   0.538E+02 -.537E+02 -.102E+02   -.506E+01 0.121E+02 0.882E+00   -.264E-05 0.292E-03 -.355E-03
   0.210E+02 -.481E+02 -.625E+01   -.284E+02 0.564E+02 0.594E+01   0.735E+01 -.800E+01 0.715E-02   -.542E-03 -.505E-03 -.265E-03
   -.773E+01 -.314E+02 -.475E+01   0.113E+02 0.255E+02 0.123E+02   -.315E+01 0.663E+01 -.715E+01   0.312E-04 0.394E-04 0.202E-03
   0.697E+01 -.495E+01 -.152E+02   -.489E+01 -.625E+01 0.192E+02   -.143E+01 0.113E+02 -.415E+01   -.176E-03 0.232E-03 -.158E-03
   0.884E+02 -.398E+02 0.195E+02   -.977E+02 0.404E+02 -.196E+02   0.996E+01 -.362E+00 0.176E+00   0.459E-03 0.214E-03 -.209E-03
   0.757E+02 0.409E+02 -.749E+02   -.774E+02 -.432E+02 0.794E+02   0.206E+01 0.192E+01 -.508E+01   0.794E-03 -.489E-03 0.209E-05
   0.223E+02 0.601E+02 -.278E+02   -.248E+02 -.648E+02 0.377E+02   0.243E+01 0.445E+01 -.950E+01   0.546E-03 -.122E-03 -.158E-03
   -.493E+01 -.488E+02 0.701E+02   0.413E+01 0.533E+02 -.708E+02   0.913E+00 -.514E+01 -.827E-01   -.417E-03 -.757E-03 0.527E-03
   0.662E+02 -.758E+02 0.253E+02   -.685E+02 0.774E+02 -.249E+02   0.342E+01 -.152E+01 -.660E+00   -.292E-04 -.274E-03 -.150E-03
   -.769E+02 -.812E+01 0.405E+02   0.844E+02 0.107E+02 -.422E+02   -.782E+01 -.206E+01 0.176E+01   -.571E-03 -.389E-03 0.144E-03
   -.729E+02 -.346E+02 -.278E+02   0.760E+02 0.348E+02 0.279E+02   -.391E+01 -.338E+00 0.495E+00   -.135E-03 -.282E-03 -.336E-03
   -.358E+02 -.284E+02 -.404E+02   0.371E+02 0.314E+02 0.413E+02   -.122E+01 -.324E+01 -.110E+01   0.296E-03 -.657E-04 -.345E-04
   -.863E+02 -.498E+02 -.500E+02   0.938E+02 0.536E+02 0.506E+02   -.826E+01 -.359E+01 -.139E+01   -.854E-03 0.303E-04 0.725E-04
   0.110E+02 -.686E+01 0.650E+02   -.110E+02 0.883E+01 -.685E+02   -.198E+00 -.227E+01 0.402E+01   0.300E-03 -.526E-04 0.143E-04
   0.186E+02 -.198E+02 -.476E+01   -.183E+02 0.188E+02 0.388E+01   -.185E+00 0.192E+01 0.163E+01   0.158E-03 -.351E-03 -.211E-03
   -.114E+02 -.822E+02 -.334E+02   0.108E+02 0.880E+02 0.372E+02   0.667E+00 -.561E+01 -.428E+01   -.431E-03 -.831E-03 0.135E-03
   -.226E+02 0.946E+02 0.480E+02   0.223E+02 -.971E+02 -.495E+02   0.584E+00 0.244E+01 0.223E+01   -.784E-03 0.463E-03 0.657E-04
   0.856E+01 -.814E+02 0.305E+02   -.953E+01 0.833E+02 -.341E+02   0.966E+00 -.191E+01 0.364E+01   -.227E-03 -.752E-04 0.240E-03
   0.185E+02 0.138E+03 -.803E+02   -.223E+02 -.143E+03 0.827E+02   0.486E+01 0.384E+01 -.183E+01   -.148E-02 0.633E-03 -.738E-03
   -.260E+02 0.570E+02 -.685E+01   0.261E+02 -.566E+02 0.776E+01   -.628E+00 -.934E+00 -.200E+01   -.348E-03 0.119E-02 0.468E-03
   0.329E+02 0.638E+02 0.105E+02   -.396E+02 -.687E+02 -.109E+02   0.683E+01 0.488E+01 0.130E+01   -.129E-03 0.219E-03 -.304E-03
   0.435E+02 0.338E+02 -.191E+02   -.445E+02 -.324E+02 0.192E+02   0.144E+01 -.298E+01 0.269E+00   0.116E-02 0.569E-03 0.311E-03
   -.193E+02 -.426E+02 -.602E+01   0.197E+02 0.424E+02 0.662E+01   -.959E+00 0.832E+00 -.769E+00   -.226E-03 -.573E-03 0.115E-03
   -.171E+02 0.108E+02 0.429E+02   0.179E+02 -.163E+02 -.468E+02   -.487E+00 0.631E+01 0.414E+01   -.345E-03 0.669E-04 0.423E-03
   0.617E+01 -.725E+02 -.261E+02   -.728E+01 0.777E+02 0.280E+02   0.152E+01 -.539E+01 -.255E+01   0.110E-02 0.814E-04 -.209E-03
   0.104E+02 -.536E+02 -.362E+01   -.653E+01 0.576E+02 0.258E+01   -.431E+01 -.454E+01 0.362E+00   0.707E-03 0.732E-04 0.109E-03
   -.486E+02 0.381E+02 0.983E+02   0.521E+02 -.398E+02 -.101E+03   -.382E+01 0.227E+01 0.259E+01   0.213E-03 -.185E-03 0.919E-04
   0.428E+02 0.417E+02 0.522E+02   -.428E+02 -.444E+02 -.609E+02   -.255E+00 0.322E+01 0.101E+02   0.906E-03 -.107E-03 0.211E-03
   0.288E+02 0.718E+02 -.865E+01   -.293E+02 -.749E+02 0.109E+02   0.111E+01 0.288E+01 -.238E+01   0.231E-03 0.930E-03 0.246E-03
   0.227E+02 -.444E+02 0.519E+01   -.225E+02 0.440E+02 -.514E+01   -.623E+00 0.856E+00 0.187E+00   0.216E-03 -.379E-03 -.102E-03
   0.675E+01 -.257E+02 -.341E+02   -.716E+01 0.255E+02 0.347E+02   0.422E+00 0.894E+00 -.492E+00   -.488E-03 -.357E-03 -.217E-03
   0.334E+02 -.173E+02 -.392E+02   -.330E+02 0.174E+02 0.395E+02   -.112E+01 -.231E+00 0.187E+00   0.168E-03 0.128E-03 -.767E-03
   -.103E+03 0.912E+02 0.665E+00   0.105E+03 -.911E+02 -.816E+00   -.246E+01 -.703E+00 -.226E+00   -.401E-03 0.514E-03 0.963E-04
   -.834E+00 -.803E+02 -.309E+02   0.134E+01 0.803E+02 0.309E+02   -.736E+00 0.396E+00 -.201E+00   -.204E-03 -.508E-03 0.275E-03
 -----------------------------------------------------------------------------------------------
   -.415E+01 -.734E+01 0.910E+00   -.127E-12 -.711E-13 0.320E-13   0.415E+01 0.735E+01 -.912E+00   -.155E-03 -.973E-03 -.228E-03
 
 
 POSITION                                       TOTAL-FORCE (eV/Angst)
 -----------------------------------------------------------------------------------
      6.41612      9.33181      0.05849         0.044224     -0.105026     -0.156533
      7.47608      5.85328      7.59379         0.056388     -0.222359      0.061387
      2.20241      1.56347      0.39325         0.209957      0.034328      0.055298
      1.59180      7.07416      2.36377        -0.019870      0.071979      0.289417
      2.76335      1.83999      4.04416         0.023676      0.043139      0.071807
      2.13198      0.57837      8.14106        -0.201995     -0.069431     -0.041982
      7.69600      5.83871      2.76368        -0.299521     -0.202816     -0.082966
      5.30539      0.70027      3.90374        -0.094533      0.088703     -0.364854
     10.05600      9.53315      7.32923         0.054020     -0.003270     -0.246835
      9.47522      3.85474      2.87455        -0.284777      0.591191     -0.223372
      4.47985      9.99946      6.57601        -0.165843     -0.137156      0.135122
      9.11273      6.12989      0.26868        -0.098843     -0.496234     -0.131910
      0.24868      3.68609      9.12511         0.137057      0.224780     -0.712317
      3.18058      5.43986      7.23096        -0.245374      0.045183      0.171862
      6.08564      2.56302     12.32260         0.190010     -0.544094      0.135797
      8.49995      2.25122     10.26220         0.320427     -0.351619      0.680280
      6.43247      5.48737     12.16300         0.193838      0.043021     -0.023816
      4.71469      4.15211      5.41133         0.221729      0.495339     -0.279521
      4.92940      6.65291      1.88592        -0.061277      0.403691     -0.233957
      2.22251      7.62821     10.66990         0.072024      0.238531     -0.003641
      6.94039      2.70791      2.69301        -0.034390     -0.414125      0.110222
      9.88822      7.00207      8.89988        -0.098214      0.039982      0.088053
      0.09723      3.72376      5.61427        -0.262396      0.060424      0.242566
      9.34105      2.11141      0.52637        -0.004826      0.242305      0.020920
      7.24403      1.34376      5.59279         0.049438      0.271207     -0.268774
      5.57977      6.51145      9.63556        -0.078026     -0.116863     -0.015808
      6.48809      8.84924      2.90816         0.192165     -0.481489     -0.151317
      7.03692      0.43112      9.47930         0.160298     -0.287155      0.371000
      6.16138      2.75779      7.69837        -0.112914      0.220501      0.131538
      9.36879      9.07551      0.06138        -0.319635      0.018452      0.127453
      3.12846      6.27293      4.17764        -0.642164      0.092207     -0.154029
      2.78981      4.88242     10.92310         0.563779     -0.561501     -0.000895
      0.95461      4.38285     12.18620         0.006036      0.277344     -0.298873
      1.96442      7.23882      6.02018         0.372490      0.689679      0.417482
      9.96749      6.37458      5.66562         0.644582      0.135481     -0.239797
      3.82802      1.11646      9.92508         0.605752      0.209315      0.076486
      3.92223      9.16896      2.76366         0.298459     -0.379262     -0.535329
      4.59906      9.45882     10.16620        -0.107500     -0.318332      0.426707
      2.08793      9.38885      6.12245         0.109826     -0.695716     -0.799121
      8.54471      7.62986      6.65002         1.089766      0.083353     -0.226236
      0.32277      1.92046      7.22217        -0.303812      0.509312      0.102179
      5.28689      6.26617      4.15878        -0.843743     -0.215713      0.600348
      4.01819      6.43781     11.82300         0.044883     -0.277631     -0.254370
      2.03428      3.81881      1.67932        -0.746303      0.291769     -0.785015
      1.85750      5.75145      9.17722        -0.195324     -0.308197      0.537788
      7.78959      3.81541      0.88819         0.137611      0.978687      0.744743
      7.88733      5.70679     10.11640         0.064659      0.165459     -0.517670
      0.71756      2.59257     11.05790         0.268524     -0.063078      0.746913
      9.76045      6.56435      3.56699         0.000409     -0.046019      0.015912
      0.70645      2.29737      2.26343         1.073205     -0.554798      0.525064
      8.03365      0.61678     11.97060        -0.484168     -0.578879     -1.086770
      8.58650      1.15043      7.42008         0.147733      0.049593      0.873883
      4.76777      1.99822      5.72872         0.429553     -1.622515      0.337453
      7.24010      7.35564      1.10652        -0.507091      0.651422     -0.175328
      8.11810      3.93633      8.87513         0.343893      0.815578      0.264589
      4.47555      1.86919      1.88529         0.417673     -0.247367     -0.729069
      5.47651      2.45158     10.02120        -0.425021     -0.479782     -0.676223
      5.83567      8.75706      8.63414        -0.270636      0.491126     -0.463453
      4.26409     10.20440      0.93387        -0.260323      0.481048      1.409750
      2.36073      4.48976      5.10132         0.617285     -0.232264     -0.132270
      5.38976      5.00223      7.47144        -0.433957      0.475484      0.235627
      8.16459      3.32633      4.65265         0.008441      0.755824      0.152906
      1.08136      9.13758      9.31332        -0.662306     -0.053149      0.447946
      7.72736      0.41284      3.61546        -0.677229     -0.572367     -0.376562
      0.83626      7.58376      0.31424        -0.227797      0.352772     -0.219889
 -----------------------------------------------------------------------------------
    total drift:                                0.008517      0.001401     -0.002105


--------------------------------------------------------------------------------------------------------



  FREE ENERGIE OF THE ION-ELECTRON SYSTEM (eV)
  ---------------------------------------------------
  free  energy   TOTEN  =      -256.17892935 eV

  energy  without entropy=     -256.17892935  energy(sigma->0) =     -256.17892935
 


--------------------------------------------------------------------------------------------------------


    POTLOK:  cpu time    0.0956: real time    0.0956


--------------------------------------------------------------------------------------------------------




--------------------------------------------------------------------------------------------------------


     LOOP+:  cpu time   60.9870: real time   61.0303
    4ORBIT:  cpu time    0.0001: real time    0.0000
 


 total charge     
 
# of ion       s       p       d       tot
------------------------------------------
    1        2.023   0.058   0.000   2.080
    2        2.023   0.060   0.000   2.082
    3        2.008   0.039   0.000   2.047
    4        2.016   0.046   0.000   2.062
    5        2.003   0.027   0.000   2.031
    6        2.017   0.050   0.000   2.067
    7        2.020   0.055   0.000   2.074
    8        2.026   0.063   0.000   2.089
    9        2.016   0.048   0.000   2.064
   10        2.022   0.059   0.000   2.082
   11        2.013   0.039   0.000   2.053
   12        2.013   0.044   0.000   2.057
   13        2.021   0.057   0.000   2.078
   14        2.023   0.059   0.000   2.081
   15        2.020   0.053   0.000   2.073
   16        2.025   0.058   0.000   2.084
   17        2.020   0.055   0.000   2.075
   18        2.026   0.066   0.000   2.091
   19        2.016   0.049   0.000   2.065
   20        2.015   0.049   0.000   2.064
   21        2.018   0.050   0.000   2.069
   22        2.008   0.035   0.000   2.043
   23        2.015   0.046   0.000   2.061
   24        2.030   0.074   0.000   2.104
   25        2.026   0.063   0.000   2.089
   26        2.012   0.041   0.000   2.054
   27        2.016   0.046   0.000   2.062
   28        2.015   0.045   0.000   2.060
   29        2.015   0.048   0.000   2.062
   30        2.018   0.046   0.000   2.064
   31        1.073   1.306   0.000   2.379
   32        1.107   1.287   0.000   2.394
   33        1.096   1.314   0.000   2.409
   34        1.082   1.319   0.000   2.401
   35        1.079   1.294   0.000   2.373
   36        1.361   2.263   0.000   3.624
   37        1.357   2.317   0.000   3.674
   38        1.367   2.269   0.000   3.636
   39        1.334   2.385   0.000   3.720
   40        1.343   2.390   0.000   3.732
   41        1.332   2.364   0.000   3.697
   42        1.341   2.379   0.000   3.720
   43        1.334   2.393   0.000   3.727
   44        1.368   2.282   0.000   3.650
   45        1.337   2.410   0.000   3.747
   46        1.312   2.475   0.000   3.787
   47        1.333   2.354   0.000   3.687
   48        1.339   2.421   0.000   3.760
   49        1.333   2.413   0.000   3.746
   50        1.344   2.382   0.000   3.726
   51        1.309   2.488   0.000   3.798
   52        1.329   2.376   0.000   3.705
   53        1.312   2.469   0.000   3.781
   54        1.308   2.479   0.000   3.787
   55        1.347   2.368   0.000   3.715
   56        1.350   2.350   0.000   3.700
   57        1.355   2.341   0.000   3.696
   58        1.349   2.351   0.000   3.699
   59        1.361   2.252   0.000   3.613
   60        1.334   2.412   0.000   3.746
   61        1.590   3.617   0.000   5.208
   62        1.592   3.594   0.000   5.186
   63        1.590   3.589   0.000   5.180
   64        1.593   3.576   0.000   5.170
   65        1.590   3.601   0.000   5.191
--------------------------------------------------
tot        107.422  85.408   0.000 192.829
 

 total amount of memory used by VASP MPI-rank0    42204. kBytes
=======================================================================

   base      :      30000. kBytes
   nonl-proj :       5360. kBytes
   fftplans  :       1886. kBytes
   grid      :       3386. kBytes
   one-center:         27. kBytes
   wavefun   :       1545. kBytes
 
  
  
 General timing and accounting informations for this job:
 ========================================================
  
                  Total CPU time used (sec):       69.174
                            User time (sec):       65.203
                          System time (sec):        3.971
                         Elapsed time (sec):       70.524
  
                   Maximum memory used (kb):      155648.
                   Average memory used (kb):           0.
  
                          Minor page faults:        62470
                          Major page faults:            0
                 Voluntary context switches:         3741
