<?xml version="1.0" encoding="ISO-8859-1"?>
<modeling>
 <generator>
  <i name="program" type="string">vasp </i>
  <i name="version" type="string">5.4.4.18Apr17-6-g9f103f2a35  </i>
  <i name="subversion" type="string">(build Jan 22 2020 12:49:05) complex            parallel </i>
  <i name="platform" type="string">Bebop BDW IPS19.0.5 gcc9.2.0 </i>
  <i name="date" type="string">2022 09 29 </i>
  <i name="time" type="string">10:06:48 </i>
 </generator>
 <incar>
  <i type="string" name="SYSTEM"> LPSC</i>
  <i type="string" name="PREC">normal</i>
  <i type="int" name="IALGO">    48</i>
  <i type="int" name="ISPIN">     1</i>
  <i type="int" name="NELM">   100</i>
  <i type="int" name="IBRION">     2</i>
  <i name="EDIFF">      0.00000100</i>
  <i name="EDIFFG">     -0.01000000</i>
  <i type="int" name="NSW">     1</i>
  <i type="int" name="ISIF">     2</i>
  <i type="int" name="ISYM">     0</i>
  <i name="ENCUT">    500.00000000</i>
  <i type="int" name="ISMEAR">     0</i>
  <i name="SIGMA">      0.05000000</i>
  <i type="logical" name="LWAVE"> F  </i>
  <i type="logical" name="LCHARG"> F  </i>
  <i type="int" name="LORBIT">    11</i>
  <v type="int" name="KPOINT_BSE">    -1     0     0     0</v>
  <i type="int" name="NELM">   100</i>
 </incar>
 <structure name="primitive_cell" >
  <crystal>
   <varray name="basis" >
    <v>      10.25000000       0.00000000       0.00000000 </v>
    <v>       0.00000000      10.25000000       0.00000000 </v>
    <v>       0.00000000       0.00000000      12.35000000 </v>
   </varray>
   <i name="volume">   1297.52187500 </i>
   <varray name="rec_basis" >
    <v>       0.09756098       0.00000000       0.00000000 </v>
    <v>       0.00000000       0.09756098       0.00000000 </v>
    <v>       0.00000000       0.00000000       0.08097166 </v>
   </varray>
  </crystal>
  <varray name="positions" >
   <v>      -0.37403707      -0.08957951       0.00473563 </v>
   <v>      -0.21622927       0.06017385      -0.03072065 </v>
   <v>      -0.29364878      -0.28237659       0.08959676 </v>
   <v>       0.41600878      -0.00444878       0.07561725 </v>
   <v>       0.44868878      -0.07718829      -0.17682591 </v>
   <v>      -0.36701561      -0.13665951       0.23547854 </v>
   <v>      -0.08597171      -0.11458439       0.00496998 </v>
   <v>      -0.31347122       0.04206010      -0.23244534 </v>
   <v>      -0.40627902       0.25005073      -0.00221862 </v>
   <v>       0.48091707      -0.35093561       0.15270607 </v>
   <v>       0.38265659      -0.10546732       0.22377814 </v>
   <v>       0.39201854      -0.37192098      -0.04267206 </v>
   <v>      -0.37244195      -0.46464683      -0.01514170 </v>
   <v>       0.43663902       0.18236000       0.15265506 </v>
   <v>      -0.43066634      -0.14565268      -0.30087935 </v>
   <v>      -0.24611122       0.04027727       0.29274980 </v>
   <v>      -0.45563220      -0.36473659      -0.21979271 </v>
   <v>       0.37346537       0.10892293      -0.19634980 </v>
   <v>      -0.11095317      -0.40196195       0.02175514 </v>
   <v>      -0.46570634       0.23917854      -0.18856680 </v>
   <v>      -0.08867805       0.20599122       0.04262121 </v>
   <v>      -0.48240098       0.06831902       0.31609231 </v>
   <v>      -0.17073659       0.21963122      -0.16905263 </v>
   <v>      -0.32288878       0.26418634       0.21805749 </v>
   <v>      -0.23050439      -0.44324000      -0.18085830 </v>
   <v>      -0.24917073      -0.43036976       0.22377976 </v>
   <v>       0.21683024      -0.25578439      -0.13604049 </v>
   <v>       0.21486927       0.15253366       0.03184202 </v>
   <v>       0.08158644      -0.26012098       0.02544478 </v>
   <v>      -0.24004000       0.37223512       0.07191822 </v>
   <v>      -0.48420585      -0.38866634       0.33674332 </v>
   <v>      -0.03529561      -0.31687122      -0.27936194 </v>
   <v>      -0.04776098      -0.35957561       0.28882510 </v>
   <v>       0.15529756      -0.30983805       0.19139838 </v>
   <v>       0.10549854      -0.10852878      -0.24588502 </v>
   <v>      -0.16229268       0.11223707      -0.39918381 </v>
   <v>       0.07000605       0.25293366      -0.10462348 </v>
   <v>       0.27217659       0.47633366      -0.11553846 </v>
   <v>      -0.39888976       0.26905268      -0.37665020 </v>
   <v>       0.06892234       0.22413366       0.18327368 </v>
   <v>      -0.27062634      -0.42894829      -0.38511822 </v>
   <v>      -0.29326537       0.13109854       0.45285749 </v>
   <v>       0.26959512       0.17951122       0.32746235 </v>
   <v>       0.30521561      -0.38800683       0.33827045 </v>
   <v>       0.43705854      -0.02444293      -0.46752955 </v>
   <v>       0.20799805       0.05642615      -0.34080486 </v>
   <v>      -0.20799024       0.38403220      -0.28136599 </v>
   <v>      -0.01892683      -0.06993659      -0.40654008 </v>
   <v>      -0.07558829       0.37607220       0.23275709 </v>
   <v>      -0.16636976      -0.25562341      -0.46153684 </v>
   <v>      -0.20345463       0.32452000       0.37673279 </v>
   <v>       0.46514829       0.19494829       0.46386397 </v>
   <v>       0.18121951      -0.43888293      -0.25690526 </v>
   <v>      -0.47416976       0.48802244      -0.39502510 </v>
   <v>       0.19846634       0.37256683       0.13597733 </v>
   <v>       0.09313239       0.42759512      -0.01326316 </v>
   <v>       0.02426107       0.35961854      -0.26112470 </v>
   <v>       0.03148995       0.18736195      -0.41520891 </v>
   <v>       0.31030049      -0.46928195      -0.41449717 </v>
   <v>      -0.02756195      -0.37808976       0.45875466 </v>
   <v>       0.20370049      -0.08401463       0.49574494 </v>
   <v>       0.45996976       0.40508390       0.43816437 </v>
   <v>       0.19165073      -0.29377366       0.48746397 </v>
   <v>       0.23031512       0.43802537       0.41306235 </v>
   <v>       0.00948600       0.36329366       0.45459676 </v>
  </varray>
 </structure>
 <varray name="primitive_index" >
  <v type="int" >        1 </v>
  <v type="int" >       51 </v>
  <v type="int" >       54 </v>
  <v type="int" >       59 </v>
  <v type="int" >       38 </v>
  <v type="int" >       27 </v>
  <v type="int" >       30 </v>
  <v type="int" >       28 </v>
  <v type="int" >       15 </v>
  <v type="int" >       19 </v>
  <v type="int" >       37 </v>
  <v type="int" >       43 </v>
  <v type="int" >       17 </v>
  <v type="int" >       56 </v>
  <v type="int" >       58 </v>
  <v type="int" >       64 </v>
  <v type="int" >       26 </v>
  <v type="int" >       36 </v>
  <v type="int" >       12 </v>
  <v type="int" >       57 </v>
  <v type="int" >       24 </v>
  <v type="int" >        8 </v>
  <v type="int" >       16 </v>
  <v type="int" >       21 </v>
  <v type="int" >       47 </v>
  <v type="int" >        7 </v>
  <v type="int" >       20 </v>
  <v type="int" >        3 </v>
  <v type="int" >       65 </v>
  <v type="int" >       46 </v>
  <v type="int" >       42 </v>
  <v type="int" >       22 </v>
  <v type="int" >       49 </v>
  <v type="int" >        4 </v>
  <v type="int" >       63 </v>
  <v type="int" >       52 </v>
  <v type="int" >       48 </v>
  <v type="int" >       32 </v>
  <v type="int" >       29 </v>
  <v type="int" >       50 </v>
  <v type="int" >        2 </v>
  <v type="int" >       25 </v>
  <v type="int" >        5 </v>
  <v type="int" >       31 </v>
  <v type="int" >       11 </v>
  <v type="int" >        6 </v>
  <v type="int" >       55 </v>
  <v type="int" >        9 </v>
  <v type="int" >       10 </v>
  <v type="int" >       40 </v>
  <v type="int" >       62 </v>
  <v type="int" >       53 </v>
  <v type="int" >       45 </v>
  <v type="int" >       61 </v>
  <v type="int" >       44 </v>
  <v type="int" >       33 </v>
  <v type="int" >       13 </v>
  <v type="int" >       41 </v>
  <v type="int" >       14 </v>
  <v type="int" >       35 </v>
  <v type="int" >       39 </v>
  <v type="int" >       18 </v>
  <v type="int" >       34 </v>
  <v type="int" >       60 </v>
  <v type="int" >       23 </v>
 </varray>
 <kpoints>
  <generation param="Gamma">
   <v type="int" name="divisions">       1        1        1 </v>
   <v name="usershift">      0.00000000       0.00000000       0.00000000 </v>
   <v name="genvec1">      1.00000000       0.00000000       0.00000000 </v>
   <v name="genvec2">      0.00000000       1.00000000       0.00000000 </v>
   <v name="genvec3">      0.00000000       0.00000000       1.00000000 </v>
   <v name="shift">      0.00000000       0.00000000       0.00000000 </v>
  </generation>
  <varray name="kpointlist" >
   <v>       0.00000000       0.00000000       0.00000000 </v>
  </varray>
  <varray name="weights" >
   <v>       1.00000000 </v>
  </varray>
 </kpoints>
 <parameters>
  <separator name="general" >
   <i type="string" name="SYSTEM">LPSC</i>
   <i type="logical" name="LCOMPAT"> F  </i>
  </separator>
  <separator name="electronic" >
   <i type="string" name="PREC">normal</i>
   <i name="ENMAX">    500.00000000</i>
   <i name="ENAUG">    628.94500000</i>
   <i name="EDIFF">      0.00000100</i>
   <i type="int" name="IALGO">    48</i>
   <i type="int" name="IWAVPR">    11</i>
   <i type="int" name="NBANDS">   184</i>
   <i name="NELECT">    300.00000000</i>
   <i type="int" name="TURBO">     0</i>
   <i type="int" name="IRESTART">     0</i>
   <i type="int" name="NREBOOT">     0</i>
   <i type="int" name="NMIN">     0</i>
   <i name="EREF">      0.00000000</i>
   <separator name="electronic smearing" >
    <i type="int" name="ISMEAR">     0</i>
    <i name="SIGMA">      0.05000000</i>
    <i name="KSPACING">      0.50000000</i>
    <i type="logical" name="KGAMMA"> T  </i>
   </separator>
   <separator name="electronic projectors" >
    <i type="logical" name="LREAL"> F  </i>
    <v name="ROPT">      0.00000000      0.00000000      0.00000000      0.00000000</v>
    <i type="int" name="LMAXPAW">  -100</i>
    <i type="int" name="LMAXMIX">     2</i>
    <i type="logical" name="NLSPLINE"> F  </i>
   </separator>
   <separator name="electronic startup" >
    <i type="int" name="ISTART">     0</i>
    <i type="int" name="ICHARG">     2</i>
    <i type="int" name="INIWAV">     1</i>
   </separator>
   <separator name="electronic spin" >
    <i type="int" name="ISPIN">     1</i>
    <i type="logical" name="LNONCOLLINEAR"> F  </i>
    <v name="MAGMOM">      1.00000000      1.00000000      1.00000000      1.00000000      1.00000000      1.00000000      1.00000000      1.00000000      1.00000000      1.00000000      1.00000000      1.00000000      1.00000000      1.00000000      1.00000000      1.00000000      1.00000000      1.00000000      1.00000000      1.00000000
      1.00000000      1.00000000      1.00000000      1.00000000      1.00000000      1.00000000      1.00000000      1.00000000      1.00000000      1.00000000      1.00000000      1.00000000      1.00000000      1.00000000      1.00000000      1.00000000      1.00000000      1.00000000      1.00000000      1.00000000
      1.00000000      1.00000000      1.00000000      1.00000000      1.00000000      1.00000000      1.00000000      1.00000000      1.00000000      1.00000000      1.00000000      1.00000000      1.00000000      1.00000000      1.00000000      1.00000000      1.00000000      1.00000000      1.00000000      1.00000000
      1.00000000      1.00000000      1.00000000      1.00000000      1.00000000</v>
    <i name="NUPDOWN">     -1.00000000</i>
    <i type="logical" name="LSORBIT"> F  </i>
    <v name="SAXIS">      0.00000000      0.00000000      1.00000000</v>
    <i type="logical" name="LSPIRAL"> F  </i>
    <v name="QSPIRAL">      0.00000000      0.00000000      0.00000000</v>
    <i type="logical" name="LZEROZ"> F  </i>
   </separator>
   <separator name="electronic exchange-correlation" >
    <i type="logical" name="LASPH"> F  </i>
    <i type="logical" name="LMETAGGA"> F  </i>
   </separator>
   <separator name="electronic convergence" >
    <i type="int" name="NELM">   100</i>
    <i type="int" name="NELMDL">   -12</i>
    <i type="int" name="NELMIN">     2</i>
    <i name="ENINI">    500.00000000</i>
    <separator name="electronic convergence detail" >
     <i type="logical" name="LDIAG"> T  </i>
     <i type="logical" name="LSUBROT"> F  </i>
     <i name="WEIMIN">      0.00100000</i>
     <i name="EBREAK">      0.00000000</i>
     <i name="DEPER">      0.30000000</i>
     <i type="int" name="NRMM">     4</i>
     <i name="TIME">      0.40000000</i>
    </separator>
   </separator>
   <separator name="electronic mixer" >
    <i name="AMIX">      0.40000000</i>
    <i name="BMIX">      1.00000000</i>
    <i name="AMIN">      0.10000000</i>
    <i name="AMIX_MAG">      1.60000000</i>
    <i name="BMIX_MAG">      1.00000000</i>
    <separator name="electronic mixer details" >
     <i type="int" name="IMIX">     4</i>
     <i type="logical" name="MIXFIRST"> F  </i>
     <i type="int" name="MAXMIX">   -45</i>
     <i name="WC">    100.00000000</i>
     <i type="int" name="INIMIX">     1</i>
     <i type="int" name="MIXPRE">     1</i>
     <i type="int" name="MREMOVE">     5</i>
    </separator>
   </separator>
   <separator name="electronic dipolcorrection" >
    <i type="logical" name="LDIPOL"> F  </i>
    <i type="logical" name="LMONO"> F  </i>
    <i type="int" name="IDIPOL">     0</i>
    <i name="EPSILON">      1.00000000</i>
    <v name="DIPOL">   -100.00000000   -100.00000000   -100.00000000</v>
    <i name="EFIELD">      0.00000000</i>
   </separator>
  </separator>
  <separator name="grids" >
   <i type="int" name="NGX">    56</i>
   <i type="int" name="NGY">    56</i>
   <i type="int" name="NGZ">    70</i>
   <i type="int" name="NGXF">   112</i>
   <i type="int" name="NGYF">   112</i>
   <i type="int" name="NGZF">   140</i>
   <i type="logical" name="ADDGRID"> F  </i>
  </separator>
  <separator name="ionic" >
   <i type="int" name="NSW">     1</i>
   <i type="int" name="IBRION">     2</i>
   <i type="int" name="MDALGO">     0</i>
   <i type="int" name="ISIF">     2</i>
   <i name="PSTRESS">      0.00000000</i>
   <i name="EDIFFG">     -0.01000000</i>
   <i type="int" name="NFREE">     1</i>
   <i name="POTIM">      0.50000000</i>
   <i name="SMASS">     -3.00000000</i>
   <i name="SCALEE">      1.00000000</i>
  </separator>
  <separator name="ionic md" >
   <i name="TEBEG">      0.00010000</i>
   <i name="TEEND">      0.00010000</i>
   <i type="int" name="NBLOCK">     1</i>
   <i type="int" name="KBLOCK">     1</i>
   <i type="int" name="NPACO">   256</i>
   <i name="APACO">     16.00000000</i>
  </separator>
  <separator name="symmetry" >
   <i type="int" name="ISYM">     0</i>
   <i name="SYMPREC">      0.00001000</i>
  </separator>
  <separator name="dos" >
   <i type="int" name="LORBIT">    11</i>
   <v name="RWIGS">     -1.00000000     -1.00000000     -1.00000000     -1.00000000</v>
   <i type="int" name="NEDOS">   301</i>
   <i name="EMIN">     10.00000000</i>
   <i name="EMAX">    -10.00000000</i>
   <i name="EFERMI">      0.00000000</i>
  </separator>
  <separator name="writing" >
   <i type="int" name="NWRITE">     2</i>
   <i type="logical" name="LWAVE"> F  </i>
   <i type="logical" name="LDOWNSAMPLE"> F  </i>
   <i type="logical" name="LCHARG"> F  </i>
   <i type="logical" name="LPARD"> F  </i>
   <i type="logical" name="LVTOT"> F  </i>
   <i type="logical" name="LVHAR"> F  </i>
   <i type="logical" name="LELF"> F  </i>
   <i type="logical" name="LOPTICS"> F  </i>
   <v name="STM">      0.00000000      0.00000000      0.00000000      0.00000000      0.00000000      0.00000000      0.00000000</v>
  </separator>
  <separator name="performance" >
   <i type="int" name="NPAR">     8</i>
   <i type="int" name="NSIM">     4</i>
   <i type="int" name="NBLK">    -1</i>
   <i type="logical" name="LPLANE"> T  </i>
   <i type="logical" name="LSCALAPACK"> T  </i>
   <i type="logical" name="LSCAAWARE"> F  </i>
   <i type="logical" name="LSCALU"> F  </i>
   <i type="logical" name="LASYNC"> F  </i>
   <i type="logical" name="LORBITALREAL"> F  </i>
  </separator>
  <separator name="miscellaneous" >
   <i type="int" name="IDIOT">     3</i>
   <i type="int" name="ISPECIAL">     0</i>
   <i type="logical" name="LMUSIC"> F  </i>
   <v name="POMASS">      7.01000000     30.97400000     32.06600000     35.45300000</v>
   <v name="DARWINR">      0.00000000      0.00000000      0.00000000      0.00000000</v>
   <v name="DARWINV">      1.00000000      1.00000000      1.00000000      1.00000000</v>
   <i type="logical" name="LCORR"> T  </i>
  </separator>
  <i type="logical" name="GGA_COMPAT"> T  </i>
  <i type="logical" name="LBERRY"> F  </i>
  <i type="int" name="ICORELEVEL">     0</i>
  <i type="logical" name="LDAU"> F  </i>
  <i type="int" name="I_CONSTRAINED_M">     0</i>
  <separator name="electronic exchange-correlation" >
   <i type="string" name="GGA">--</i>
   <i type="int" name="VOSKOWN">     0</i>
   <i type="logical" name="LHFCALC"> F  </i>
   <i type="string" name="PRECFOCK"></i>
   <i type="logical" name="LSYMGRAD"> F  </i>
   <i type="logical" name="LHFONE"> F  </i>
   <i type="logical" name="LRHFCALC"> F  </i>
   <i type="logical" name="LTHOMAS"> F  </i>
   <i type="logical" name="LMODELHF"> F  </i>
   <i name="ENCUT4O">     -1.00000000</i>
   <i type="int" name="EXXOEP">     0</i>
   <i type="int" name="FOURORBIT">     0</i>
   <i name="AEXX">      0.00000000</i>
   <i name="HFALPHA">      0.00000000</i>
   <i name="MCALPHA">      0.00000000</i>
   <i name="ALDAX">      1.00000000</i>
   <i name="AGGAX">      1.00000000</i>
   <i name="ALDAC">      1.00000000</i>
   <i name="AGGAC">      1.00000000</i>
   <i type="int" name="NKREDX">     1</i>
   <i type="int" name="NKREDY">     1</i>
   <i type="int" name="NKREDZ">     1</i>
   <i type="logical" name="SHIFTRED"> F  </i>
   <i type="logical" name="ODDONLY"> F  </i>
   <i type="logical" name="EVENONLY"> F  </i>
   <i type="int" name="LMAXFOCK">     0</i>
   <i type="int" name="NMAXFOCKAE">     0</i>
   <i type="logical" name="LFOCKAEDFT"> F  </i>
   <i name="HFSCREEN">      0.00000000</i>
   <i name="HFSCREENC">      0.00000000</i>
   <i type="int" name="NBANDSGWLOW">     0</i>
  </separator>
  <separator name="vdW DFT" >
   <i type="logical" name="LUSE_VDW"> F  </i>
   <i name="Zab_VDW">     -0.84910000</i>
   <i name="PARAM1">      0.12340000</i>
   <i name="PARAM2">      1.00000000</i>
   <i name="PARAM3">      0.00000000</i>
  </separator>
  <separator name="model GW" >
   <i type="int" name="MODEL_GW">     0</i>
   <i name="MODEL_EPS0">     11.97712500</i>
   <i name="MODEL_ALPHA">      1.00000000</i>
  </separator>
  <separator name="linear response parameters" >
   <i type="logical" name="LEPSILON"> F  </i>
   <i type="logical" name="LRPA"> F  </i>
   <i type="logical" name="LNABLA"> F  </i>
   <i type="logical" name="LVEL"> F  </i>
   <i type="int" name="KINTER">     0</i>
   <i name="CSHIFT">      0.10000000</i>
   <i name="OMEGAMAX">     -1.00000000</i>
   <i name="DEG_THRESHOLD">      0.00200000</i>
   <i name="RTIME">     -0.10000000</i>
   <i name="WPLASMAI">      0.00000000</i>
   <v name="DFIELD">      0.00000000      0.00000000      0.00000000</v>
   <v name="WPLASMA">      0.00000000      0.00000000      0.00000000      0.00000000      0.00000000      0.00000000      0.00000000      0.00000000      0.00000000</v>
  </separator>
  <separator name="orbital magnetization" >
   <i type="logical" name="NUCIND"> F  </i>
   <v name="MAGPOS">      0.00000000      0.00000000      0.00000000</v>
   <i type="logical" name="LNICSALL"> T  </i>
   <i type="logical" name="ORBITALMAG"> F  </i>
   <i type="logical" name="LMAGBLOCH"> F  </i>
   <i type="logical" name="LCHIMAG"> F  </i>
   <i type="logical" name="LGAUGE"> T  </i>
   <i type="int" name="MAGATOM">     0</i>
   <v name="MAGDIPOL">      0.00000000      0.00000000      0.00000000</v>
   <v name="AVECCONST">      0.00000000      0.00000000      0.00000000</v>
  </separator>
  <separator name="response functions" >
   <i type="logical" name="LADDER"> F  </i>
   <i type="logical" name="LRPAFORCE"> F  </i>
   <i type="logical" name="LFXC"> F  </i>
   <i type="logical" name="LHARTREE"> T  </i>
   <i type="int" name="IBSE">     0</i>
   <v type="int" name="KPOINT">    -1     0     0     0</v>
   <i type="logical" name="LTCTE"> F  </i>
   <i type="logical" name="LTETE"> F  </i>
   <i type="logical" name="LTRIPLET"> F  </i>
   <i type="logical" name="LFXCEPS"> F  </i>
   <i type="logical" name="LFXHEG"> F  </i>
   <i type="int" name="NATURALO">     2</i>
   <i type="logical" name="L2ORDER"> F  </i>
   <i type="logical" name="LMP2LT"> F  </i>
   <i type="logical" name="LUSEW"> F  </i>
   <i name="ENCUTGW">     -2.00000000</i>
   <i name="ENCUTGWSOFT">     -2.00000000</i>
   <i name="ENCUTLF">     -1.00000000</i>
   <i type="int" name="LMAXMP2">    -1</i>
   <i name="SCISSOR">      0.00000000</i>
   <i type="int" name="NOMEGA">     0</i>
   <i type="int" name="NOMEGAR">     0</i>
   <i type="int" name="NBANDSGW">    -1</i>
   <i type="int" name="NBANDSO">    -1</i>
   <i type="int" name="NBANDSV">    -1</i>
   <i type="int" name="NELM">   100</i>
   <i type="int" name="NELMHF">     1</i>
   <i type="int" name="DIM">     3</i>
   <i type="int" name="ANTIRES">     0</i>
   <i name="OMEGAMAX">    -30.00000000</i>
   <i name="OMEGAMIN">    -30.00000000</i>
   <i name="OMEGATL">   -200.00000000</i>
   <i type="int" name="OMEGAGRID">   140</i>
   <i name="CSHIFT">     -0.10000000</i>
   <i type="logical" name="SELFENERGY"> F  </i>
   <i type="logical" name="LSPECTRAL"> F  </i>
   <i type="logical" name="LSPECTRALGW"> F  </i>
   <i type="logical" name="LSINGLES"> F  </i>
   <i type="logical" name="LFERMIGW"> F  </i>
   <i type="logical" name="ODDONLYGW"> F  </i>
   <i type="logical" name="EVENONLYGW"> F  </i>
   <i type="int" name="NKREDLFX">     1</i>
   <i type="int" name="NKREDLFY">     1</i>
   <i type="int" name="NKREDLFZ">     1</i>
   <i type="int" name="MAXMEM">  2800</i>
   <i type="int" name="TELESCOPE">     0</i>
   <i type="int" name="TAUPAR">     1</i>
   <i type="int" name="OMEGAPAR">    -1</i>
   <i name="LAMBDA">      1.00000000</i>
  </separator>
  <separator name="External order field" >
   <i name="OFIELD_KAPPA">      0.00000000</i>
   <v name="OFIELD_K">      0.00000000      0.00000000      0.00000000</v>
   <i name="OFIELD_Q6_NEAR">      0.00000000</i>
   <i name="OFIELD_Q6_FAR">      0.00000000</i>
   <i name="OFIELD_A">      0.00000000</i>
  </separator>
 </parameters>
 <atominfo>
  <atoms>      65 </atoms>
  <types>       4 </types>
  <array name="atoms" >
   <dimension dim="1">ion</dimension>
   <field type="string">element</field>
   <field type="int">atomtype</field>
   <set>
    <rc><c>Li</c><c>   1</c></rc>
    <rc><c>Li</c><c>   1</c></rc>
    <rc><c>Li</c><c>   1</c></rc>
    <rc><c>Li</c><c>   1</c></rc>
    <rc><c>Li</c><c>   1</c></rc>
    <rc><c>Li</c><c>   1</c></rc>
    <rc><c>Li</c><c>   1</c></rc>
    <rc><c>Li</c><c>   1</c></rc>
    <rc><c>Li</c><c>   1</c></rc>
    <rc><c>Li</c><c>   1</c></rc>
    <rc><c>Li</c><c>   1</c></rc>
    <rc><c>Li</c><c>   1</c></rc>
    <rc><c>Li</c><c>   1</c></rc>
    <rc><c>Li</c><c>   1</c></rc>
    <rc><c>Li</c><c>   1</c></rc>
    <rc><c>Li</c><c>   1</c></rc>
    <rc><c>Li</c><c>   1</c></rc>
    <rc><c>Li</c><c>   1</c></rc>
    <rc><c>Li</c><c>   1</c></rc>
    <rc><c>Li</c><c>   1</c></rc>
    <rc><c>Li</c><c>   1</c></rc>
    <rc><c>Li</c><c>   1</c></rc>
    <rc><c>Li</c><c>   1</c></rc>
    <rc><c>Li</c><c>   1</c></rc>
    <rc><c>Li</c><c>   1</c></rc>
    <rc><c>Li</c><c>   1</c></rc>
    <rc><c>Li</c><c>   1</c></rc>
    <rc><c>Li</c><c>   1</c></rc>
    <rc><c>Li</c><c>   1</c></rc>
    <rc><c>Li</c><c>   1</c></rc>
    <rc><c>P </c><c>   2</c></rc>
    <rc><c>P </c><c>   2</c></rc>
    <rc><c>P </c><c>   2</c></rc>
    <rc><c>P </c><c>   2</c></rc>
    <rc><c>P </c><c>   2</c></rc>
    <rc><c>S </c><c>   3</c></rc>
    <rc><c>S </c><c>   3</c></rc>
    <rc><c>S </c><c>   3</c></rc>
    <rc><c>S </c><c>   3</c></rc>
    <rc><c>S </c><c>   3</c></rc>
    <rc><c>S </c><c>   3</c></rc>
    <rc><c>S </c><c>   3</c></rc>
    <rc><c>S </c><c>   3</c></rc>
    <rc><c>S </c><c>   3</c></rc>
    <rc><c>S </c><c>   3</c></rc>
    <rc><c>S </c><c>   3</c></rc>
    <rc><c>S </c><c>   3</c></rc>
    <rc><c>S </c><c>   3</c></rc>
    <rc><c>S </c><c>   3</c></rc>
    <rc><c>S </c><c>   3</c></rc>
    <rc><c>S </c><c>   3</c></rc>
    <rc><c>S </c><c>   3</c></rc>
    <rc><c>S </c><c>   3</c></rc>
    <rc><c>S </c><c>   3</c></rc>
    <rc><c>S </c><c>   3</c></rc>
    <rc><c>S </c><c>   3</c></rc>
    <rc><c>S </c><c>   3</c></rc>
    <rc><c>S </c><c>   3</c></rc>
    <rc><c>S </c><c>   3</c></rc>
    <rc><c>S </c><c>   3</c></rc>
    <rc><c>Cl</c><c>   4</c></rc>
    <rc><c>Cl</c><c>   4</c></rc>
    <rc><c>Cl</c><c>   4</c></rc>
    <rc><c>Cl</c><c>   4</c></rc>
    <rc><c>Cl</c><c>   4</c></rc>
   </set>
  </array>
  <array name="atomtypes" >
   <dimension dim="1">type</dimension>
   <field type="int">atomspertype</field>
   <field type="string">element</field>
   <field>mass</field>
   <field>valence</field>
   <field type="string">pseudopotential</field>
   <set>
    <rc><c>  30</c><c>Li</c><c>      7.01000000</c><c>      3.00000000</c><c>  PAW_PBE Li_sv 10Sep2004               </c></rc>
    <rc><c>   5</c><c>P </c><c>     30.97400000</c><c>      5.00000000</c><c>  PAW_PBE P 06Sep2000                   </c></rc>
    <rc><c>  25</c><c>S </c><c>     32.06600000</c><c>      6.00000000</c><c>  PAW_PBE S 06Sep2000                   </c></rc>
    <rc><c>   5</c><c>Cl</c><c>     35.45300000</c><c>      7.00000000</c><c>  PAW_PBE Cl 06Sep2000                  </c></rc>
   </set>
  </array>
 </atominfo>
 <structure name="initialpos" >
  <crystal>
   <varray name="basis" >
    <v>      10.25000000       0.00000000       0.00000000 </v>
    <v>       0.00000000      10.25000000       0.00000000 </v>
    <v>       0.00000000       0.00000000      12.35000000 </v>
   </varray>
   <i name="volume">   1297.52187500 </i>
   <varray name="rec_basis" >
    <v>       0.09756098       0.00000000       0.00000000 </v>
    <v>       0.00000000       0.09756098       0.00000000 </v>
    <v>       0.00000000       0.00000000       0.08097166 </v>
   </varray>
  </crystal>
  <varray name="positions" >
   <v>       0.62596293       0.91042049       0.00473563 </v>
   <v>       0.72937366       0.57105171       0.61488178 </v>
   <v>       0.21486927       0.15253366       0.03184202 </v>
   <v>       0.15529756       0.69016195       0.19139838 </v>
   <v>       0.26959512       0.17951122       0.32746235 </v>
   <v>       0.20799805       0.05642615       0.65919514 </v>
   <v>       0.75082927       0.56963024       0.22377976 </v>
   <v>       0.51759902       0.06831902       0.31609231 </v>
   <v>       0.98107317       0.93006341       0.59345992 </v>
   <v>       0.92441171       0.37607220       0.23275709 </v>
   <v>       0.43705854       0.97555707       0.53247045 </v>
   <v>       0.88904683       0.59803805       0.02175514 </v>
   <v>       0.02426107       0.35961854       0.73887530 </v>
   <v>       0.31030049       0.53071805       0.58550283 </v>
   <v>       0.59372098       0.25005073       0.99778138 </v>
   <v>       0.82926341       0.21963122       0.83094737 </v>
   <v>       0.62755805       0.53535317       0.98485830 </v>
   <v>       0.45996976       0.40508390       0.43816437 </v>
   <v>       0.48091707       0.64906439       0.15270607 </v>
   <v>       0.21683024       0.74421561       0.86395951 </v>
   <v>       0.67711122       0.26418634       0.21805749 </v>
   <v>       0.96470439       0.68312878       0.72063806 </v>
   <v>       0.00948600       0.36329366       0.45459676 </v>
   <v>       0.91132195       0.20599122       0.04262121 </v>
   <v>       0.70673463       0.13109854       0.45285749 </v>
   <v>       0.54436780       0.63526341       0.78020729 </v>
   <v>       0.63298439       0.86334049       0.23547854 </v>
   <v>       0.68652878       0.04206010       0.76755466 </v>
   <v>       0.60111024       0.26905268       0.62334980 </v>
   <v>       0.91402829       0.88541561       0.00496998 </v>
   <v>       0.30521561       0.61199317       0.33827045 </v>
   <v>       0.27217659       0.47633366       0.88446154 </v>
   <v>       0.09313239       0.42759512       0.98673684 </v>
   <v>       0.19165073       0.70622634       0.48746397 </v>
   <v>       0.97243805       0.62191024       0.45875466 </v>
   <v>       0.37346537       0.10892293       0.80365020 </v>
   <v>       0.38265659       0.89453268       0.22377814 </v>
   <v>       0.44868878       0.92281171       0.82317409 </v>
   <v>       0.20370049       0.91598537       0.49574494 </v>
   <v>       0.83363024       0.74437659       0.53846316 </v>
   <v>       0.03148995       0.18736195       0.58479109 </v>
   <v>       0.51579415       0.61133366       0.33674332 </v>
   <v>       0.39201854       0.62807902       0.95732794 </v>
   <v>       0.19846634       0.37256683       0.13597733 </v>
   <v>       0.18121951       0.56111707       0.74309474 </v>
   <v>       0.75996000       0.37223512       0.07191822 </v>
   <v>       0.76949561       0.55676000       0.81914170 </v>
   <v>       0.07000605       0.25293366       0.89537652 </v>
   <v>       0.95223902       0.64042439       0.28882510 </v>
   <v>       0.06892234       0.22413366       0.18327368 </v>
   <v>       0.78377073       0.06017385       0.96927935 </v>
   <v>       0.83770732       0.11223707       0.60081619 </v>
   <v>       0.46514829       0.19494829       0.46386397 </v>
   <v>       0.70635122       0.71762341       0.08959676 </v>
   <v>       0.79200976       0.38403220       0.71863401 </v>
   <v>       0.43663902       0.18236000       0.15265506 </v>
   <v>       0.53429366       0.23917854       0.81143320 </v>
   <v>       0.56933366       0.85434732       0.69912065 </v>
   <v>       0.41600878       0.99555122       0.07561725 </v>
   <v>       0.23031512       0.43802537       0.41306235 </v>
   <v>       0.52583024       0.48802244       0.60497490 </v>
   <v>       0.79654537       0.32452000       0.37673279 </v>
   <v>       0.10549854       0.89147122       0.75411498 </v>
   <v>       0.75388878       0.04027727       0.29274980 </v>
   <v>       0.08158644       0.73987902       0.02544478 </v>
  </varray>
 </structure>
 <calculation>
  <scstep>
   <time name="diag">    0.25    0.26</time>
   <time name="diis">    0.34    0.34</time>
   <time name="orth">    0.02    0.02</time>
   <time name="total">    0.71    0.75</time>
   <energy>
    <i name="alphaZ">    256.70245505 </i>
    <i name="ewald">  -9928.73424166 </i>
    <i name="hartreedc">  -3348.70030552 </i>
    <i name="XCdc">    790.93363043 </i>
    <i name="pawpsdc">  10155.13001117 </i>
    <i name="pawaedc"> -10497.29644279 </i>
    <i name="eentropy">     -0.00000812 </i>
    <i name="bandstr">  -4518.31073019 </i>
    <i name="atom">  15932.49537490 </i>
    <i name="e_fr_energy">  -1157.78025673 </i>
    <i name="e_wo_entrp">  -1157.78024861 </i>
    <i name="e_0_energy">  -1157.78025267 </i>
   </energy>
  </scstep>
  <scstep>
   <time name="diag">    0.19    0.19</time>
   <time name="diis">    0.33    0.33</time>
   <time name="orth">    0.02    0.02</time>
   <time name="total">    0.53    0.53</time>
   <energy>
    <i name="e_fr_energy">    735.29198305 </i>
    <i name="e_wo_entrp">    735.29198305 </i>
    <i name="e_0_energy">    735.29198305 </i>
   </energy>
  </scstep>
  <scstep>
   <time name="diag">    0.19    0.19</time>
   <time name="diis">    0.32    0.32</time>
   <time name="orth">    0.02    0.02</time>
   <time name="total">    0.53    0.54</time>
   <energy>
    <i name="e_fr_energy">    241.51000757 </i>
    <i name="e_wo_entrp">    241.51000757 </i>
    <i name="e_0_energy">    241.51000757 </i>
   </energy>
  </scstep>
  <scstep>
   <time name="diag">    0.19    0.19</time>
   <time name="diis">    0.33    0.33</time>
   <time name="orth">    0.02    0.02</time>
   <time name="total">    0.53    0.53</time>
   <energy>
    <i name="e_fr_energy">    -14.10526412 </i>
    <i name="e_wo_entrp">    -14.10241272 </i>
    <i name="e_0_energy">    -14.10383842 </i>
   </energy>
  </scstep>
  <scstep>
   <time name="diag">    0.18    0.18</time>
   <time name="diis">    0.32    0.32</time>
   <time name="orth">    0.02    0.02</time>
   <time name="total">    0.53    0.53</time>
   <energy>
    <i name="e_fr_energy">   -125.17073317 </i>
    <i name="e_wo_entrp">   -125.17073317 </i>
    <i name="e_0_energy">   -125.17073317 </i>
   </energy>
  </scstep>
  <scstep>
   <time name="diag">    0.18    0.18</time>
   <time name="diis">    0.32    0.32</time>
   <time name="orth">    0.02    0.02</time>
   <time name="total">    0.53    0.53</time>
   <energy>
    <i name="e_fr_energy">   -171.64513397 </i>
    <i name="e_wo_entrp">   -171.64513397 </i>
    <i name="e_0_energy">   -171.64513397 </i>
   </energy>
  </scstep>
  <scstep>
   <time name="diag">    0.18    0.18</time>
   <time name="diis">    0.33    0.33</time>
   <time name="orth">    0.02    0.02</time>
   <time name="total">    0.53    0.53</time>
   <energy>
    <i name="e_fr_energy">   -194.14891656 </i>
    <i name="e_wo_entrp">   -194.14891656 </i>
    <i name="e_0_energy">   -194.14891656 </i>
   </energy>
  </scstep>
  <scstep>
   <time name="diag">    0.18    0.18</time>
   <time name="diis">    0.32    0.32</time>
   <time name="orth">    0.02    0.02</time>
   <time name="total">    0.52    0.52</time>
   <energy>
    <i name="e_fr_energy">   -207.30836261 </i>
    <i name="e_wo_entrp">   -207.30836261 </i>
    <i name="e_0_energy">   -207.30836261 </i>
   </energy>
  </scstep>
  <scstep>
   <time name="diag">    0.18    0.18</time>
   <time name="diis">    1.12    1.12</time>
   <time name="orth">    0.03    0.03</time>
   <time name="total">    1.34    1.34</time>
   <energy>
    <i name="e_fr_energy">   -242.02596491 </i>
    <i name="e_wo_entrp">   -242.02596491 </i>
    <i name="e_0_energy">   -242.02596491 </i>
   </energy>
  </scstep>
  <scstep>
   <time name="diag">    0.19    0.19</time>
   <time name="diis">    1.12    1.14</time>
   <time name="orth">    0.03    0.03</time>
   <time name="total">    1.34    1.35</time>
   <energy>
    <i name="e_fr_energy">   -259.90131694 </i>
    <i name="e_wo_entrp">   -259.90131694 </i>
    <i name="e_0_energy">   -259.90131694 </i>
   </energy>
  </scstep>
  <scstep>
   <time name="diag">    0.19    0.19</time>
   <time name="diis">    1.24    1.24</time>
   <time name="orth">    0.04    0.04</time>
   <time name="total">    1.47    1.46</time>
   <energy>
    <i name="e_fr_energy">   -263.93662490 </i>
    <i name="e_wo_entrp">   -263.93662490 </i>
    <i name="e_0_energy">   -263.93662490 </i>
   </energy>
  </scstep>
  <scstep>
   <time name="diag">    0.22    0.22</time>
   <time name="diis">    1.11    1.11</time>
   <time name="orth">    0.03    0.03</time>
   <time name="total">    1.41    1.41</time>
   <energy>
    <i name="e_fr_energy">   -266.04679796 </i>
    <i name="e_wo_entrp">   -266.04679796 </i>
    <i name="e_0_energy">   -266.04679796 </i>
   </energy>
  </scstep>
  <scstep>
   <time name="diag">    0.18    0.18</time>
   <time name="diis">    0.86    0.86</time>
   <time name="orth">    0.03    0.03</time>
   <time name="total">    1.20    1.20</time>
   <energy>
    <i name="e_fr_energy">   -256.80380997 </i>
    <i name="e_wo_entrp">   -256.80380997 </i>
    <i name="e_0_energy">   -256.80380997 </i>
   </energy>
  </scstep>
  <scstep>
   <time name="diag">    0.18    0.18</time>
   <time name="diis">    0.89    0.89</time>
   <time name="orth">    0.03    0.03</time>
   <time name="total">    1.23    1.23</time>
   <energy>
    <i name="e_fr_energy">   -255.71343860 </i>
    <i name="e_wo_entrp">   -255.71343860 </i>
    <i name="e_0_energy">   -255.71343860 </i>
   </energy>
  </scstep>
  <scstep>
   <time name="diag">    0.18    0.18</time>
   <time name="diis">    1.01    1.01</time>
   <time name="orth">    0.03    0.03</time>
   <time name="total">    1.35    1.35</time>
   <energy>
    <i name="e_fr_energy">   -255.83685608 </i>
    <i name="e_wo_entrp">   -255.83685608 </i>
    <i name="e_0_energy">   -255.83685608 </i>
   </energy>
  </scstep>
  <scstep>
   <time name="diag">    0.18    0.18</time>
   <time name="diis">    1.07    1.07</time>
   <time name="orth">    0.03    0.03</time>
   <time name="total">    1.41    1.41</time>
   <energy>
    <i name="e_fr_energy">   -255.93809405 </i>
    <i name="e_wo_entrp">   -255.93809405 </i>
    <i name="e_0_energy">   -255.93809405 </i>
   </energy>
  </scstep>
  <scstep>
   <time name="diag">    0.18    0.18</time>
   <time name="diis">    1.06    1.06</time>
   <time name="orth">    0.03    0.03</time>
   <time name="total">    1.40    1.40</time>
   <energy>
    <i name="e_fr_energy">   -256.02351740 </i>
    <i name="e_wo_entrp">   -256.02351740 </i>
    <i name="e_0_energy">   -256.02351740 </i>
   </energy>
  </scstep>
  <scstep>
   <time name="diag">    0.18    0.18</time>
   <time name="diis">    1.07    1.07</time>
   <time name="orth">    0.03    0.03</time>
   <time name="total">    1.43    1.43</time>
   <energy>
    <i name="e_fr_energy">   -256.08252800 </i>
    <i name="e_wo_entrp">   -256.08252800 </i>
    <i name="e_0_energy">   -256.08252800 </i>
   </energy>
  </scstep>
  <scstep>
   <time name="diag">    0.21    0.21</time>
   <time name="diis">    1.14    1.14</time>
   <time name="orth">    0.03    0.03</time>
   <time name="total">    1.52    1.52</time>
   <energy>
    <i name="e_fr_energy">   -256.12198207 </i>
    <i name="e_wo_entrp">   -256.12198207 </i>
    <i name="e_0_energy">   -256.12198207 </i>
   </energy>
  </scstep>
  <scstep>
   <time name="diag">    0.18    0.18</time>
   <time name="diis">    1.11    1.11</time>
   <time name="orth">    0.03    0.03</time>
   <time name="total">    1.45    1.45</time>
   <energy>
    <i name="e_fr_energy">   -256.14103207 </i>
    <i name="e_wo_entrp">   -256.14103207 </i>
    <i name="e_0_energy">   -256.14103207 </i>
   </energy>
  </scstep>
  <scstep>
   <time name="diag">    0.18    0.18</time>
   <time name="diis">    1.07    1.07</time>
   <time name="orth">    0.03    0.03</time>
   <time name="total">    1.41    1.41</time>
   <energy>
    <i name="e_fr_energy">   -256.15476666 </i>
    <i name="e_wo_entrp">   -256.15476666 </i>
    <i name="e_0_energy">   -256.15476666 </i>
   </energy>
  </scstep>
  <scstep>
   <time name="diag">    0.18    0.18</time>
   <time name="diis">    1.05    1.05</time>
   <time name="orth">    0.03    0.03</time>
   <time name="total">    1.39    1.39</time>
   <energy>
    <i name="e_fr_energy">   -256.16247874 </i>
    <i name="e_wo_entrp">   -256.16247874 </i>
    <i name="e_0_energy">   -256.16247874 </i>
   </energy>
  </scstep>
  <scstep>
   <time name="diag">    0.18    0.18</time>
   <time name="diis">    1.10    1.10</time>
   <time name="orth">    0.03    0.03</time>
   <time name="total">    1.44    1.44</time>
   <energy>
    <i name="e_fr_energy">   -256.16797197 </i>
    <i name="e_wo_entrp">   -256.16797197 </i>
    <i name="e_0_energy">   -256.16797197 </i>
   </energy>
  </scstep>
  <scstep>
   <time name="diag">    0.18    0.18</time>
   <time name="diis">    1.11    1.11</time>
   <time name="orth">    0.03    0.03</time>
   <time name="total">    1.45    1.45</time>
   <energy>
    <i name="e_fr_energy">   -256.17170737 </i>
    <i name="e_wo_entrp">   -256.17170737 </i>
    <i name="e_0_energy">   -256.17170737 </i>
   </energy>
  </scstep>
  <scstep>
   <time name="diag">    0.18    0.18</time>
   <time name="diis">    1.18    1.18</time>
   <time name="orth">    0.03    0.03</time>
   <time name="total">    1.53    1.52</time>
   <energy>
    <i name="e_fr_energy">   -256.17379706 </i>
    <i name="e_wo_entrp">   -256.17379706 </i>
    <i name="e_0_energy">   -256.17379706 </i>
   </energy>
  </scstep>
  <scstep>
   <time name="diag">    0.19    0.19</time>
   <time name="diis">    1.07    1.07</time>
   <time name="orth">    0.03    0.03</time>
   <time name="total">    1.43    1.43</time>
   <energy>
    <i name="e_fr_energy">   -256.17512969 </i>
    <i name="e_wo_entrp">   -256.17512969 </i>
    <i name="e_0_energy">   -256.17512969 </i>
   </energy>
  </scstep>
  <scstep>
   <time name="diag">    0.18    0.18</time>
   <time name="diis">    1.06    1.05</time>
   <time name="orth">    0.03    0.03</time>
   <time name="total">    1.39    1.39</time>
   <energy>
    <i name="e_fr_energy">   -256.17635465 </i>
    <i name="e_wo_entrp">   -256.17635465 </i>
    <i name="e_0_energy">   -256.17635465 </i>
   </energy>
  </scstep>
  <scstep>
   <time name="diag">    0.18    0.18</time>
   <time name="diis">    1.01    1.01</time>
   <time name="orth">    0.03    0.03</time>
   <time name="total">    1.34    1.34</time>
   <energy>
    <i name="e_fr_energy">   -256.17693100 </i>
    <i name="e_wo_entrp">   -256.17693100 </i>
    <i name="e_0_energy">   -256.17693100 </i>
   </energy>
  </scstep>
  <scstep>
   <time name="diag">    0.18    0.18</time>
   <time name="diis">    1.11    1.11</time>
   <time name="orth">    0.03    0.03</time>
   <time name="total">    1.44    1.44</time>
   <energy>
    <i name="e_fr_energy">   -256.17739917 </i>
    <i name="e_wo_entrp">   -256.17739917 </i>
    <i name="e_0_energy">   -256.17739917 </i>
   </energy>
  </scstep>
  <scstep>
   <time name="diag">    0.18    0.18</time>
   <time name="diis">    1.06    1.06</time>
   <time name="orth">    0.03    0.03</time>
   <time name="total">    1.40    1.39</time>
   <energy>
    <i name="e_fr_energy">   -256.17779476 </i>
    <i name="e_wo_entrp">   -256.17779476 </i>
    <i name="e_0_energy">   -256.17779476 </i>
   </energy>
  </scstep>
  <scstep>
   <time name="diag">    0.18    0.18</time>
   <time name="diis">    1.05    1.05</time>
   <time name="orth">    0.03    0.03</time>
   <time name="total">    1.39    1.39</time>
   <energy>
    <i name="e_fr_energy">   -256.17814970 </i>
    <i name="e_wo_entrp">   -256.17814970 </i>
    <i name="e_0_energy">   -256.17814970 </i>
   </energy>
  </scstep>
  <scstep>
   <time name="diag">    0.18    0.18</time>
   <time name="diis">    1.12    1.11</time>
   <time name="orth">    0.03    0.03</time>
   <time name="total">    1.46    1.46</time>
   <energy>
    <i name="e_fr_energy">   -256.17840364 </i>
    <i name="e_wo_entrp">   -256.17840364 </i>
    <i name="e_0_energy">   -256.17840364 </i>
   </energy>
  </scstep>
  <scstep>
   <time name="diag">    0.19    0.19</time>
   <time name="diis">    1.10    1.10</time>
   <time name="orth">    0.03    0.03</time>
   <time name="total">    1.46    1.45</time>
   <energy>
    <i name="e_fr_energy">   -256.17857916 </i>
    <i name="e_wo_entrp">   -256.17857916 </i>
    <i name="e_0_energy">   -256.17857916 </i>
   </energy>
  </scstep>
  <scstep>
   <time name="diag">    0.18    0.18</time>
   <time name="diis">    1.00    1.00</time>
   <time name="orth">    0.02    0.02</time>
   <time name="total">    1.34    1.34</time>
   <energy>
    <i name="e_fr_energy">   -256.17868403 </i>
    <i name="e_wo_entrp">   -256.17868403 </i>
    <i name="e_0_energy">   -256.17868403 </i>
   </energy>
  </scstep>
  <scstep>
   <time name="diag">    0.18    0.18</time>
   <time name="diis">    1.01    1.01</time>
   <time name="orth">    0.02    0.02</time>
   <time name="total">    1.34    1.34</time>
   <energy>
    <i name="e_fr_energy">   -256.17875766 </i>
    <i name="e_wo_entrp">   -256.17875766 </i>
    <i name="e_0_energy">   -256.17875766 </i>
   </energy>
  </scstep>
  <scstep>
   <time name="diag">    0.18    0.18</time>
   <time name="diis">    1.01    1.01</time>
   <time name="orth">    0.02    0.02</time>
   <time name="total">    1.34    1.34</time>
   <energy>
    <i name="e_fr_energy">   -256.17879899 </i>
    <i name="e_wo_entrp">   -256.17879899 </i>
    <i name="e_0_energy">   -256.17879899 </i>
   </energy>
  </scstep>
  <scstep>
   <time name="diag">    0.18    0.18</time>
   <time name="diis">    1.01    1.01</time>
   <time name="orth">    0.03    0.02</time>
   <time name="total">    1.35    1.34</time>
   <energy>
    <i name="e_fr_energy">   -256.17883091 </i>
    <i name="e_wo_entrp">   -256.17883091 </i>
    <i name="e_0_energy">   -256.17883091 </i>
   </energy>
  </scstep>
  <scstep>
   <time name="diag">    0.18    0.18</time>
   <time name="diis">    0.99    0.99</time>
   <time name="orth">    0.03    0.03</time>
   <time name="total">    1.33    1.33</time>
   <energy>
    <i name="e_fr_energy">   -256.17886321 </i>
    <i name="e_wo_entrp">   -256.17886321 </i>
    <i name="e_0_energy">   -256.17886321 </i>
   </energy>
  </scstep>
  <scstep>
   <time name="diag">    0.18    0.18</time>
   <time name="diis">    0.99    0.99</time>
   <time name="orth">    0.03    0.03</time>
   <time name="total">    1.33    1.33</time>
   <energy>
    <i name="e_fr_energy">   -256.17888091 </i>
    <i name="e_wo_entrp">   -256.17888091 </i>
    <i name="e_0_energy">   -256.17888091 </i>
   </energy>
  </scstep>
  <scstep>
   <time name="diag">    0.19    0.19</time>
   <time name="diis">    0.98    0.98</time>
   <time name="orth">    0.03    0.03</time>
   <time name="total">    1.35    1.35</time>
   <energy>
    <i name="e_fr_energy">   -256.17889559 </i>
    <i name="e_wo_entrp">   -256.17889559 </i>
    <i name="e_0_energy">   -256.17889559 </i>
   </energy>
  </scstep>
  <scstep>
   <time name="diag">    0.18    0.18</time>
   <time name="diis">    0.85    0.85</time>
   <time name="orth">    0.03    0.03</time>
   <time name="total">    1.19    1.19</time>
   <energy>
    <i name="e_fr_energy">   -256.17890611 </i>
    <i name="e_wo_entrp">   -256.17890611 </i>
    <i name="e_0_energy">   -256.17890611 </i>
   </energy>
  </scstep>
  <scstep>
   <time name="diag">    0.18    0.18</time>
   <time name="diis">    0.85    0.85</time>
   <time name="orth">    0.03    0.03</time>
   <time name="total">    1.19    1.19</time>
   <energy>
    <i name="e_fr_energy">   -256.17891381 </i>
    <i name="e_wo_entrp">   -256.17891381 </i>
    <i name="e_0_energy">   -256.17891381 </i>
   </energy>
  </scstep>
  <scstep>
   <time name="diag">    0.18    0.18</time>
   <time name="diis">    0.82    0.82</time>
   <time name="orth">    0.03    0.03</time>
   <time name="total">    1.16    1.16</time>
   <energy>
    <i name="e_fr_energy">   -256.17891871 </i>
    <i name="e_wo_entrp">   -256.17891871 </i>
    <i name="e_0_energy">   -256.17891871 </i>
   </energy>
  </scstep>
  <scstep>
   <time name="diag">    0.18    0.18</time>
   <time name="diis">    0.79    0.79</time>
   <time name="orth">    0.03    0.03</time>
   <time name="total">    1.13    1.13</time>
   <energy>
    <i name="e_fr_energy">   -256.17892237 </i>
    <i name="e_wo_entrp">   -256.17892237 </i>
    <i name="e_0_energy">   -256.17892237 </i>
   </energy>
  </scstep>
  <scstep>
   <time name="diag">    0.18    0.18</time>
   <time name="diis">    0.82    0.82</time>
   <time name="orth">    0.02    0.02</time>
   <time name="total">    1.17    1.17</time>
   <energy>
    <i name="e_fr_energy">   -256.17892529 </i>
    <i name="e_wo_entrp">   -256.17892529 </i>
    <i name="e_0_energy">   -256.17892529 </i>
   </energy>
  </scstep>
  <scstep>
   <time name="diag">    0.18    0.18</time>
   <time name="diis">    0.68    0.68</time>
   <time name="orth">    0.03    0.03</time>
   <time name="total">    1.03    1.02</time>
   <energy>
    <i name="e_fr_energy">   -256.17892687 </i>
    <i name="e_wo_entrp">   -256.17892687 </i>
    <i name="e_0_energy">   -256.17892687 </i>
   </energy>
  </scstep>
  <scstep>
   <time name="diag">    0.18    0.18</time>
   <time name="diis">    0.66    0.66</time>
   <time name="orth">    0.02    0.02</time>
   <time name="total">    1.00    1.00</time>
   <energy>
    <i name="e_fr_energy">   -256.17892793 </i>
    <i name="e_wo_entrp">   -256.17892793 </i>
    <i name="e_0_energy">   -256.17892793 </i>
   </energy>
  </scstep>
  <scstep>
   <time name="diag">    0.18    0.18</time>
   <time name="diis">    0.70    0.70</time>
   <time name="orth">    0.03    0.03</time>
   <time name="total">    1.06    1.06</time>
   <energy>
    <i name="e_fr_energy">   -256.17892873 </i>
    <i name="e_wo_entrp">   -256.17892873 </i>
    <i name="e_0_energy">   -256.17892873 </i>
   </energy>
  </scstep>
  <scstep>
   <time name="diag">    0.20    0.20</time>
   <time name="diis">    0.78    0.78</time>
   <time name="orth">    0.03    0.03</time>
   <time name="total">    1.11    1.11</time>
   <energy>
    <i name="alphaZ">    256.70245505 </i>
    <i name="ewald">  -9928.73424166 </i>
    <i name="hartreedc">  -3523.93798276 </i>
    <i name="XCdc">    804.66124094 </i>
    <i name="pawpsdc">  22021.95823286 </i>
    <i name="pawaedc"> -22378.26895064 </i>
    <i name="eentropy">     -0.00000000 </i>
    <i name="bandstr">  -3441.05505805 </i>
    <i name="atom">  15932.49537490 </i>
    <i name="e_fr_energy">   -256.17892935 </i>
    <i name="e_wo_entrp">   -256.17892935 </i>
    <i name="e_0_energy">   -256.17892935 </i>
   </energy>
  </scstep>
  <structure>
   <crystal>
    <varray name="basis" >
     <v>      10.25000000       0.00000000       0.00000000 </v>
     <v>       0.00000000      10.25000000       0.00000000 </v>
     <v>       0.00000000       0.00000000      12.35000000 </v>
    </varray>
    <i name="volume">   1297.52187500 </i>
    <varray name="rec_basis" >
     <v>       0.09756098       0.00000000       0.00000000 </v>
     <v>       0.00000000       0.09756098       0.00000000 </v>
     <v>       0.00000000       0.00000000       0.08097166 </v>
    </varray>
   </crystal>
   <varray name="positions" >
    <v>       0.62596293       0.91042049       0.00473563 </v>
    <v>       0.72937366       0.57105171       0.61488178 </v>
    <v>       0.21486927       0.15253366       0.03184202 </v>
    <v>       0.15529756       0.69016195       0.19139838 </v>
    <v>       0.26959512       0.17951122       0.32746235 </v>
    <v>       0.20799805       0.05642615       0.65919514 </v>
    <v>       0.75082927       0.56963024       0.22377976 </v>
    <v>       0.51759902       0.06831902       0.31609231 </v>
    <v>       0.98107317       0.93006341       0.59345992 </v>
    <v>       0.92441171       0.37607220       0.23275709 </v>
    <v>       0.43705854       0.97555707       0.53247045 </v>
    <v>       0.88904683       0.59803805       0.02175514 </v>
    <v>       0.02426107       0.35961854       0.73887530 </v>
    <v>       0.31030049       0.53071805       0.58550283 </v>
    <v>       0.59372098       0.25005073       0.99778138 </v>
    <v>       0.82926341       0.21963122       0.83094737 </v>
    <v>       0.62755805       0.53535317       0.98485830 </v>
    <v>       0.45996976       0.40508390       0.43816437 </v>
    <v>       0.48091707       0.64906439       0.15270607 </v>
    <v>       0.21683024       0.74421561       0.86395951 </v>
    <v>       0.67711122       0.26418634       0.21805749 </v>
    <v>       0.96470439       0.68312878       0.72063806 </v>
    <v>       0.00948600       0.36329366       0.45459676 </v>
    <v>       0.91132195       0.20599122       0.04262121 </v>
    <v>       0.70673463       0.13109854       0.45285749 </v>
    <v>       0.54436780       0.63526341       0.78020729 </v>
    <v>       0.63298439       0.86334049       0.23547854 </v>
    <v>       0.68652878       0.04206010       0.76755466 </v>
    <v>       0.60111024       0.26905268       0.62334980 </v>
    <v>       0.91402829       0.88541561       0.00496998 </v>
    <v>       0.30521561       0.61199317       0.33827045 </v>
    <v>       0.27217659       0.47633366       0.88446154 </v>
    <v>       0.09313239       0.42759512       0.98673684 </v>
    <v>       0.19165073       0.70622634       0.48746397 </v>
    <v>       0.97243805       0.62191024       0.45875466 </v>
    <v>       0.37346537       0.10892293       0.80365020 </v>
    <v>       0.38265659       0.89453268       0.22377814 </v>
    <v>       0.44868878       0.92281171       0.82317409 </v>
    <v>       0.20370049       0.91598537       0.49574494 </v>
    <v>       0.83363024       0.74437659       0.53846316 </v>
    <v>       0.03148995       0.18736195       0.58479109 </v>
    <v>       0.51579415       0.61133366       0.33674332 </v>
    <v>       0.39201854       0.62807902       0.95732794 </v>
    <v>       0.19846634       0.37256683       0.13597733 </v>
    <v>       0.18121951       0.56111707       0.74309474 </v>
    <v>       0.75996000       0.37223512       0.07191822 </v>
    <v>       0.76949561       0.55676000       0.81914170 </v>
    <v>       0.07000605       0.25293366       0.89537652 </v>
    <v>       0.95223902       0.64042439       0.28882510 </v>
    <v>       0.06892234       0.22413366       0.18327368 </v>
    <v>       0.78377073       0.06017385       0.96927935 </v>
    <v>       0.83770732       0.11223707       0.60081619 </v>
    <v>       0.46514829       0.19494829       0.46386397 </v>
    <v>       0.70635122       0.71762341       0.08959676 </v>
    <v>       0.79200976       0.38403220       0.71863401 </v>
    <v>       0.43663902       0.18236000       0.15265506 </v>
    <v>       0.53429366       0.23917854       0.81143320 </v>
    <v>       0.56933366       0.85434732       0.69912065 </v>
    <v>       0.41600878       0.99555122       0.07561725 </v>
    <v>       0.23031512       0.43802537       0.41306235 </v>
    <v>       0.52583024       0.48802244       0.60497490 </v>
    <v>       0.79654537       0.32452000       0.37673279 </v>
    <v>       0.10549854       0.89147122       0.75411498 </v>
    <v>       0.75388878       0.04027727       0.29274980 </v>
    <v>       0.08158644       0.73987902       0.02544478 </v>
   </varray>
  </structure>
  <varray name="forces" >
   <v>       0.04422363      -0.10502596      -0.15653282 </v>
   <v>       0.05638849      -0.22235892       0.06138733 </v>
   <v>       0.20995715       0.03432798       0.05529778 </v>
   <v>      -0.01987036       0.07197866       0.28941688 </v>
   <v>       0.02367635       0.04313901       0.07180696 </v>
   <v>      -0.20199511      -0.06943148      -0.04198162 </v>
   <v>      -0.29952073      -0.20281648      -0.08296554 </v>
   <v>      -0.09453342       0.08870257      -0.36485411 </v>
   <v>       0.05401983      -0.00327014      -0.24683470 </v>
   <v>      -0.28477651       0.59119144      -0.22337211 </v>
   <v>      -0.16584313      -0.13715586       0.13512238 </v>
   <v>      -0.09884338      -0.49623394      -0.13190972 </v>
   <v>       0.13705701       0.22477955      -0.71231739 </v>
   <v>      -0.24537389       0.04518258       0.17186205 </v>
   <v>       0.19000957      -0.54409403       0.13579725 </v>
   <v>       0.32042697      -0.35161909       0.68027959 </v>
   <v>       0.19383831       0.04302070      -0.02381598 </v>
   <v>       0.22172905       0.49533949      -0.27952145 </v>
   <v>      -0.06127744       0.40369094      -0.23395652 </v>
   <v>       0.07202376       0.23853066      -0.00364144 </v>
   <v>      -0.03439029      -0.41412467       0.11022222 </v>
   <v>      -0.09821403       0.03998206       0.08805331 </v>
   <v>      -0.26239630       0.06042376       0.24256555 </v>
   <v>      -0.00482638       0.24230503       0.02092016 </v>
   <v>       0.04943796       0.27120683      -0.26877360 </v>
   <v>      -0.07802566      -0.11686298      -0.01580846 </v>
   <v>       0.19216479      -0.48148893      -0.15131677 </v>
   <v>       0.16029811      -0.28715468       0.37099960 </v>
   <v>      -0.11291419       0.22050147       0.13153761 </v>
   <v>      -0.31963477       0.01845246       0.12745316 </v>
   <v>      -0.64216388       0.09220693      -0.15402853 </v>
   <v>       0.56377912      -0.56150082      -0.00089460 </v>
   <v>       0.00603557       0.27734419      -0.29887250 </v>
   <v>       0.37248981       0.68967950       0.41748229 </v>
   <v>       0.64458240       0.13548058      -0.23979686 </v>
   <v>       0.60575169       0.20931499       0.07648638 </v>
   <v>       0.29845947      -0.37926233      -0.53532941 </v>
   <v>      -0.10750008      -0.31833164       0.42670652 </v>
   <v>       0.10982556      -0.69571610      -0.79912136 </v>
   <v>       1.08976619       0.08335291      -0.22623573 </v>
   <v>      -0.30381155       0.50931242       0.10217916 </v>
   <v>      -0.84374262      -0.21571303       0.60034816 </v>
   <v>       0.04488284      -0.27763059      -0.25437014 </v>
   <v>      -0.74630301       0.29176923      -0.78501497 </v>
   <v>      -0.19532407      -0.30819727       0.53778815 </v>
   <v>       0.13761068       0.97868653       0.74474334 </v>
   <v>       0.06465891       0.16545898      -0.51767040 </v>
   <v>       0.26852439      -0.06307811       0.74691321 </v>
   <v>       0.00040886      -0.04601936       0.01591246 </v>
   <v>       1.07320543      -0.55479831       0.52506384 </v>
   <v>      -0.48416818      -0.57887919      -1.08676967 </v>
   <v>       0.14773336       0.04959334       0.87388302 </v>
   <v>       0.42955268      -1.62251502       0.33745348 </v>
   <v>      -0.50709088       0.65142241      -0.17532773 </v>
   <v>       0.34389298       0.81557754       0.26458900 </v>
   <v>       0.41767282      -0.24736742      -0.72906882 </v>
   <v>      -0.42502081      -0.47978239      -0.67622304 </v>
   <v>      -0.27063623       0.49112577      -0.46345257 </v>
   <v>      -0.26032343       0.48104802       1.40975041 </v>
   <v>       0.61728488      -0.23226433      -0.13227005 </v>
   <v>      -0.43395703       0.47548431       0.23562689 </v>
   <v>       0.00844109       0.75582395       0.15290563 </v>
   <v>      -0.66230625      -0.05314874       0.44794584 </v>
   <v>      -0.67722947      -0.57236675      -0.37656198 </v>
   <v>      -0.22779665       0.35277176      -0.21988904 </v>
  </varray>
  <varray name="stress" >
   <v>     -10.89430903      -8.01112973       1.33882323 </v>
   <v>      -8.01112970      14.34832214      -8.33979827 </v>
   <v>       1.33882328      -8.33979819       4.06143840 </v>
  </varray>
  <energy>
   <i name="e_fr_energy">   -256.17892935 </i>
   <i name="e_wo_entrp">   -256.17892935 </i>
   <i name="e_0_energy">     -0.00000000 </i>
  </energy>
  <time name="totalsc">   60.99   61.03</time>
  <eigenvalues>
   <array>
    <dimension dim="1">band</dimension>
    <dimension dim="2">kpoint</dimension>
    <dimension dim="3">spin</dimension>
    <field>eigene</field>
    <field>occ</field>
    <set>
     <set comment="spin 1">
      <set comment="kpoint 1">
       <r>  -44.2755    1.0000 </r>
       <r>  -44.1835    1.0000 </r>
       <r>  -44.0334    1.0000 </r>
       <r>  -43.9100    1.0000 </r>
       <r>  -43.8740    1.0000 </r>
       <r>  -43.6247    1.0000 </r>
       <r>  -43.5824    1.0000 </r>
       <r>  -43.5658    1.0000 </r>
       <r>  -43.5515    1.0000 </r>
       <r>  -43.5194    1.0000 </r>
       <r>  -43.4980    1.0000 </r>
       <r>  -43.4628    1.0000 </r>
       <r>  -43.4593    1.0000 </r>
       <r>  -43.3912    1.0000 </r>
       <r>  -43.3545    1.0000 </r>
       <r>  -43.3352    1.0000 </r>
       <r>  -43.3015    1.0000 </r>
       <r>  -43.2940    1.0000 </r>
       <r>  -43.2226    1.0000 </r>
       <r>  -43.1708    1.0000 </r>
       <r>  -43.1602    1.0000 </r>
       <r>  -43.1377    1.0000 </r>
       <r>  -43.1367    1.0000 </r>
       <r>  -43.0880    1.0000 </r>
       <r>  -43.0247    1.0000 </r>
       <r>  -42.9758    1.0000 </r>
       <r>  -42.9709    1.0000 </r>
       <r>  -42.9618    1.0000 </r>
       <r>  -42.8012    1.0000 </r>
       <r>  -42.3136    1.0000 </r>
       <r>  -14.1331    1.0000 </r>
       <r>  -13.4546    1.0000 </r>
       <r>  -13.3819    1.0000 </r>
       <r>  -13.3208    1.0000 </r>
       <r>  -13.2926    1.0000 </r>
       <r>  -13.0403    1.0000 </r>
       <r>  -12.7588    1.0000 </r>
       <r>  -12.6605    1.0000 </r>
       <r>  -12.0709    1.0000 </r>
       <r>  -12.0272    1.0000 </r>
       <r>  -11.9516    1.0000 </r>
       <r>  -11.8220    1.0000 </r>
       <r>  -11.6287    1.0000 </r>
       <r>  -11.5060    1.0000 </r>
       <r>  -11.1966    1.0000 </r>
       <r>  -10.5067    1.0000 </r>
       <r>  -10.4085    1.0000 </r>
       <r>  -10.2668    1.0000 </r>
       <r>  -10.2480    1.0000 </r>
       <r>  -10.0070    1.0000 </r>
       <r>   -9.8602    1.0000 </r>
       <r>   -9.4336    1.0000 </r>
       <r>   -9.0966    1.0000 </r>
       <r>   -9.0220    1.0000 </r>
       <r>   -8.7675    1.0000 </r>
       <r>   -8.4740    1.0000 </r>
       <r>   -8.4187    1.0000 </r>
       <r>   -8.3771    1.0000 </r>
       <r>   -8.1921    1.0000 </r>
       <r>   -7.8826    1.0000 </r>
       <r>   -7.6535    1.0000 </r>
       <r>   -7.5897    1.0000 </r>
       <r>   -6.6916    1.0000 </r>
       <r>   -6.0013    1.0000 </r>
       <r>   -5.4577    1.0000 </r>
       <r>   -3.9794    1.0000 </r>
       <r>   -3.5294    1.0000 </r>
       <r>   -3.4036    1.0000 </r>
       <r>   -3.2760    1.0000 </r>
       <r>   -3.1969    1.0000 </r>
       <r>   -3.0940    1.0000 </r>
       <r>   -2.8963    1.0000 </r>
       <r>   -2.8295    1.0000 </r>
       <r>   -2.6631    1.0000 </r>
       <r>   -2.5950    1.0000 </r>
       <r>   -2.4907    1.0000 </r>
       <r>   -2.4694    1.0000 </r>
       <r>   -2.4456    1.0000 </r>
       <r>   -2.3705    1.0000 </r>
       <r>   -2.3510    1.0000 </r>
       <r>   -2.2794    1.0000 </r>
       <r>   -2.2643    1.0000 </r>
       <r>   -2.1106    1.0000 </r>
       <r>   -2.0760    1.0000 </r>
       <r>   -2.0248    1.0000 </r>
       <r>   -2.0049    1.0000 </r>
       <r>   -1.8954    1.0000 </r>
       <r>   -1.8748    1.0000 </r>
       <r>   -1.8321    1.0000 </r>
       <r>   -1.7772    1.0000 </r>
       <r>   -1.7242    1.0000 </r>
       <r>   -1.6109    1.0000 </r>
       <r>   -1.5492    1.0000 </r>
       <r>   -1.5052    1.0000 </r>
       <r>   -1.4334    1.0000 </r>
       <r>   -1.3351    1.0000 </r>
       <r>   -1.3098    1.0000 </r>
       <r>   -1.2830    1.0000 </r>
       <r>   -1.1821    1.0000 </r>
       <r>   -1.1149    1.0000 </r>
       <r>   -1.0939    1.0000 </r>
       <r>   -1.0366    1.0000 </r>
       <r>   -0.9057    1.0000 </r>
       <r>   -0.7962    1.0000 </r>
       <r>   -0.7706    1.0000 </r>
       <r>   -0.7306    1.0000 </r>
       <r>   -0.6952    1.0000 </r>
       <r>   -0.5969    1.0000 </r>
       <r>   -0.5391    1.0000 </r>
       <r>   -0.5180    1.0000 </r>
       <r>   -0.4209    1.0000 </r>
       <r>   -0.3651    1.0000 </r>
       <r>   -0.3097    1.0000 </r>
       <r>   -0.2744    1.0000 </r>
       <r>   -0.2083    1.0000 </r>
       <r>   -0.1548    1.0000 </r>
       <r>   -0.1150    1.0000 </r>
       <r>   -0.0264    1.0000 </r>
       <r>    0.0426    1.0000 </r>
       <r>    0.0640    1.0000 </r>
       <r>    0.1429    1.0000 </r>
       <r>    0.1823    1.0000 </r>
       <r>    0.1866    1.0000 </r>
       <r>    0.2461    1.0000 </r>
       <r>    0.2959    1.0000 </r>
       <r>    0.3629    1.0000 </r>
       <r>    0.4646    1.0000 </r>
       <r>    0.5141    1.0000 </r>
       <r>    0.5291    1.0000 </r>
       <r>    0.5966    1.0000 </r>
       <r>    0.6239    1.0000 </r>
       <r>    0.6376    1.0000 </r>
       <r>    0.7714    1.0000 </r>
       <r>    0.8050    1.0000 </r>
       <r>    0.8778    1.0000 </r>
       <r>    0.9452    1.0000 </r>
       <r>    1.0044    1.0000 </r>
       <r>    1.0563    1.0000 </r>
       <r>    1.1059    1.0000 </r>
       <r>    1.2121    1.0000 </r>
       <r>    1.2555    1.0000 </r>
       <r>    1.2728    1.0000 </r>
       <r>    1.3357    1.0000 </r>
       <r>    1.3872    1.0000 </r>
       <r>    1.5380    1.0000 </r>
       <r>    1.6837    1.0000 </r>
       <r>    1.7645    1.0000 </r>
       <r>    1.8161    1.0000 </r>
       <r>    1.8812    1.0000 </r>
       <r>    1.9874    1.0000 </r>
       <r>    3.5945    0.0000 </r>
       <r>    3.7382    0.0000 </r>
       <r>    3.8445    0.0000 </r>
       <r>    4.0196    0.0000 </r>
       <r>    4.0337    0.0000 </r>
       <r>    4.2091    0.0000 </r>
       <r>    4.3188    0.0000 </r>
       <r>    4.4467    0.0000 </r>
       <r>    4.4837    0.0000 </r>
       <r>    4.7659    0.0000 </r>
       <r>    4.8669    0.0000 </r>
       <r>    4.9570    0.0000 </r>
       <r>    5.0378    0.0000 </r>
       <r>    5.2330    0.0000 </r>
       <r>    5.3305    0.0000 </r>
       <r>    5.5047    0.0000 </r>
       <r>    5.5339    0.0000 </r>
       <r>    5.7033    0.0000 </r>
       <r>    5.8303    0.0000 </r>
       <r>    6.0084    0.0000 </r>
       <r>    6.0548    0.0000 </r>
       <r>    6.1778    0.0000 </r>
       <r>    6.3236    0.0000 </r>
       <r>    6.3885    0.0000 </r>
       <r>    6.4859    0.0000 </r>
       <r>    6.5993    0.0000 </r>
       <r>    6.6975    0.0000 </r>
       <r>    6.7708    0.0000 </r>
       <r>    6.8272    0.0000 </r>
       <r>    6.9381    0.0000 </r>
       <r>    7.0149    0.0000 </r>
       <r>    7.1608    0.0000 </r>
       <r>    7.3631    0.0000 </r>
       <r>    7.3851    0.0000 </r>
      </set>
     </set>
    </set>
   </array>
  </eigenvalues>
  <separator name="orbital magnetization" >
   <v name="MAGDIPOLOUT">      0.00000000      0.00000000      0.00000000</v>
  </separator>
  <dos>
   <i name="efermi">      2.24914369 </i>
   <total>
    <array>
     <dimension dim="1">gridpoints</dimension>
     <dimension dim="2">spin</dimension>
     <field>energy</field>
     <field>total</field>
     <field>integrated</field>
     <set>
      <set comment="spin 1">
       <r>   -46.8585     0.0000     0.0000 </r>
       <r>   -46.6691     0.0000     0.0000 </r>
       <r>   -46.4797     0.0000     0.0000 </r>
       <r>   -46.2903     0.0000     0.0000 </r>
       <r>   -46.1008     0.0000     0.0000 </r>
       <r>   -45.9114     0.0000     0.0000 </r>
       <r>   -45.7220     0.0000     0.0000 </r>
       <r>   -45.5326     0.0000     0.0000 </r>
       <r>   -45.3432     0.0000     0.0000 </r>
       <r>   -45.1537     0.0000     0.0000 </r>
       <r>   -44.9643     0.0000     0.0000 </r>
       <r>   -44.7749     0.0000     0.0000 </r>
       <r>   -44.5855     0.0000     0.0000 </r>
       <r>   -44.3960     0.0034     0.0007 </r>
       <r>   -44.2066    12.9925     2.4617 </r>
       <r>   -44.0172    15.2828     5.3566 </r>
       <r>   -43.8278    23.3989     9.7889 </r>
       <r>   -43.6384     5.6913    10.8669 </r>
       <r>   -43.4489    71.6172    24.4328 </r>
       <r>   -43.2595    59.5365    35.7103 </r>
       <r>   -43.0701    62.0861    47.4708 </r>
       <r>   -42.8807    44.9479    55.9849 </r>
       <r>   -42.6912    10.6281    57.9981 </r>
       <r>   -42.5018     0.0099    58.0000 </r>
       <r>   -42.3124     5.4231    59.0273 </r>
       <r>   -42.1230     5.1353    60.0000 </r>
       <r>   -41.9336     0.0000    60.0000 </r>
       <r>   -41.7441     0.0000    60.0000 </r>
       <r>   -41.5547     0.0000    60.0000 </r>
       <r>   -41.3653     0.0000    60.0000 </r>
       <r>   -41.1759     0.0000    60.0000 </r>
       <r>   -40.9864     0.0000    60.0000 </r>
       <r>   -40.7970     0.0000    60.0000 </r>
       <r>   -40.6076     0.0000    60.0000 </r>
       <r>   -40.4182     0.0000    60.0000 </r>
       <r>   -40.2288     0.0000    60.0000 </r>
       <r>   -40.0393     0.0000    60.0000 </r>
       <r>   -39.8499     0.0000    60.0000 </r>
       <r>   -39.6605     0.0000    60.0000 </r>
       <r>   -39.4711     0.0000    60.0000 </r>
       <r>   -39.2816     0.0000    60.0000 </r>
       <r>   -39.0922     0.0000    60.0000 </r>
       <r>   -38.9028     0.0000    60.0000 </r>
       <r>   -38.7134     0.0000    60.0000 </r>
       <r>   -38.5240     0.0000    60.0000 </r>
       <r>   -38.3345     0.0000    60.0000 </r>
       <r>   -38.1451     0.0000    60.0000 </r>
       <r>   -37.9557     0.0000    60.0000 </r>
       <r>   -37.7663     0.0000    60.0000 </r>
       <r>   -37.5768     0.0000    60.0000 </r>
       <r>   -37.3874     0.0000    60.0000 </r>
       <r>   -37.1980     0.0000    60.0000 </r>
       <r>   -37.0086     0.0000    60.0000 </r>
       <r>   -36.8192     0.0000    60.0000 </r>
       <r>   -36.6297     0.0000    60.0000 </r>
       <r>   -36.4403     0.0000    60.0000 </r>
       <r>   -36.2509     0.0000    60.0000 </r>
       <r>   -36.0615     0.0000    60.0000 </r>
       <r>   -35.8720     0.0000    60.0000 </r>
       <r>   -35.6826     0.0000    60.0000 </r>
       <r>   -35.4932     0.0000    60.0000 </r>
       <r>   -35.3038     0.0000    60.0000 </r>
       <r>   -35.1144     0.0000    60.0000 </r>
       <r>   -34.9249     0.0000    60.0000 </r>
       <r>   -34.7355     0.0000    60.0000 </r>
       <r>   -34.5461     0.0000    60.0000 </r>
       <r>   -34.3567     0.0000    60.0000 </r>
       <r>   -34.1673     0.0000    60.0000 </r>
       <r>   -33.9778     0.0000    60.0000 </r>
       <r>   -33.7884     0.0000    60.0000 </r>
       <r>   -33.5990     0.0000    60.0000 </r>
       <r>   -33.4096     0.0000    60.0000 </r>
       <r>   -33.2201     0.0000    60.0000 </r>
       <r>   -33.0307     0.0000    60.0000 </r>
       <r>   -32.8413     0.0000    60.0000 </r>
       <r>   -32.6519     0.0000    60.0000 </r>
       <r>   -32.4625     0.0000    60.0000 </r>
       <r>   -32.2730     0.0000    60.0000 </r>
       <r>   -32.0836     0.0000    60.0000 </r>
       <r>   -31.8942     0.0000    60.0000 </r>
       <r>   -31.7048     0.0000    60.0000 </r>
       <r>   -31.5153     0.0000    60.0000 </r>
       <r>   -31.3259     0.0000    60.0000 </r>
       <r>   -31.1365     0.0000    60.0000 </r>
       <r>   -30.9471     0.0000    60.0000 </r>
       <r>   -30.7577     0.0000    60.0000 </r>
       <r>   -30.5682     0.0000    60.0000 </r>
       <r>   -30.3788     0.0000    60.0000 </r>
       <r>   -30.1894     0.0000    60.0000 </r>
       <r>   -30.0000     0.0000    60.0000 </r>
       <r>   -29.8105     0.0000    60.0000 </r>
       <r>   -29.6211     0.0000    60.0000 </r>
       <r>   -29.4317     0.0000    60.0000 </r>
       <r>   -29.2423     0.0000    60.0000 </r>
       <r>   -29.0529     0.0000    60.0000 </r>
       <r>   -28.8634     0.0000    60.0000 </r>
       <r>   -28.6740     0.0000    60.0000 </r>
       <r>   -28.4846     0.0000    60.0000 </r>
       <r>   -28.2952     0.0000    60.0000 </r>
       <r>   -28.1057     0.0000    60.0000 </r>
       <r>   -27.9163     0.0000    60.0000 </r>
       <r>   -27.7269     0.0000    60.0000 </r>
       <r>   -27.5375     0.0000    60.0000 </r>
       <r>   -27.3481     0.0000    60.0000 </r>
       <r>   -27.1586     0.0000    60.0000 </r>
       <r>   -26.9692     0.0000    60.0000 </r>
       <r>   -26.7798     0.0000    60.0000 </r>
       <r>   -26.5904     0.0000    60.0000 </r>
       <r>   -26.4009     0.0000    60.0000 </r>
       <r>   -26.2115     0.0000    60.0000 </r>
       <r>   -26.0221     0.0000    60.0000 </r>
       <r>   -25.8327     0.0000    60.0000 </r>
       <r>   -25.6433     0.0000    60.0000 </r>
       <r>   -25.4538     0.0000    60.0000 </r>
       <r>   -25.2644     0.0000    60.0000 </r>
       <r>   -25.0750     0.0000    60.0000 </r>
       <r>   -24.8856     0.0000    60.0000 </r>
       <r>   -24.6961     0.0000    60.0000 </r>
       <r>   -24.5067     0.0000    60.0000 </r>
       <r>   -24.3173     0.0000    60.0000 </r>
       <r>   -24.1279     0.0000    60.0000 </r>
       <r>   -23.9385     0.0000    60.0000 </r>
       <r>   -23.7490     0.0000    60.0000 </r>
       <r>   -23.5596     0.0000    60.0000 </r>
       <r>   -23.3702     0.0000    60.0000 </r>
       <r>   -23.1808     0.0000    60.0000 </r>
       <r>   -22.9913     0.0000    60.0000 </r>
       <r>   -22.8019     0.0000    60.0000 </r>
       <r>   -22.6125     0.0000    60.0000 </r>
       <r>   -22.4231     0.0000    60.0000 </r>
       <r>   -22.2337     0.0000    60.0000 </r>
       <r>   -22.0442     0.0000    60.0000 </r>
       <r>   -21.8548     0.0000    60.0000 </r>
       <r>   -21.6654     0.0000    60.0000 </r>
       <r>   -21.4760     0.0000    60.0000 </r>
       <r>   -21.2865     0.0000    60.0000 </r>
       <r>   -21.0971     0.0000    60.0000 </r>
       <r>   -20.9077     0.0000    60.0000 </r>
       <r>   -20.7183     0.0000    60.0000 </r>
       <r>   -20.5289     0.0000    60.0000 </r>
       <r>   -20.3394     0.0000    60.0000 </r>
       <r>   -20.1500     0.0000    60.0000 </r>
       <r>   -19.9606     0.0000    60.0000 </r>
       <r>   -19.7712     0.0000    60.0000 </r>
       <r>   -19.5818     0.0000    60.0000 </r>
       <r>   -19.3923     0.0000    60.0000 </r>
       <r>   -19.2029     0.0000    60.0000 </r>
       <r>   -19.0135     0.0000    60.0000 </r>
       <r>   -18.8241     0.0000    60.0000 </r>
       <r>   -18.6346     0.0000    60.0000 </r>
       <r>   -18.4452     0.0000    60.0000 </r>
       <r>   -18.2558     0.0000    60.0000 </r>
       <r>   -18.0664     0.0000    60.0000 </r>
       <r>   -17.8770     0.0000    60.0000 </r>
       <r>   -17.6875     0.0000    60.0000 </r>
       <r>   -17.4981     0.0000    60.0000 </r>
       <r>   -17.3087     0.0000    60.0000 </r>
       <r>   -17.1193     0.0000    60.0000 </r>
       <r>   -16.9298     0.0000    60.0000 </r>
       <r>   -16.7404     0.0000    60.0000 </r>
       <r>   -16.5510     0.0000    60.0000 </r>
       <r>   -16.3616     0.0000    60.0000 </r>
       <r>   -16.1722     0.0000    60.0000 </r>
       <r>   -15.9827     0.0000    60.0000 </r>
       <r>   -15.7933     0.0000    60.0000 </r>
       <r>   -15.6039     0.0000    60.0000 </r>
       <r>   -15.4145     0.0000    60.0000 </r>
       <r>   -15.2250     0.0000    60.0000 </r>
       <r>   -15.0356     0.0000    60.0000 </r>
       <r>   -14.8462     0.0000    60.0000 </r>
       <r>   -14.6568     0.0000    60.0000 </r>
       <r>   -14.4674     0.0000    60.0000 </r>
       <r>   -14.2779     0.0002    60.0000 </r>
       <r>   -14.0885     9.4659    61.7931 </r>
       <r>   -13.8991     1.0923    62.0000 </r>
       <r>   -13.7097     0.0000    62.0000 </r>
       <r>   -13.5202     0.3340    62.0633 </r>
       <r>   -13.3308    25.5695    66.9067 </r>
       <r>   -13.1414    16.3526    70.0042 </r>
       <r>   -12.9520    10.4704    71.9876 </r>
       <r>   -12.7626     4.9186    72.9193 </r>
       <r>   -12.5731    16.1931    75.9866 </r>
       <r>   -12.3837     0.0708    76.0000 </r>
       <r>   -12.1943     0.0026    76.0005 </r>
       <r>   -12.0049    18.7018    79.5430 </r>
       <r>   -11.8154    19.0303    83.1478 </r>
       <r>   -11.6260    10.0999    85.0609 </r>
       <r>   -11.4366    15.2538    87.9503 </r>
       <r>   -11.2472     1.0686    88.1527 </r>
       <r>   -11.0578     9.7516    89.9999 </r>
       <r>   -10.8683     0.0005    90.0000 </r>
       <r>   -10.6789     0.0000    90.0000 </r>
       <r>   -10.4895     7.3716    91.3964 </r>
       <r>   -10.3001    16.3109    94.4860 </r>
       <r>   -10.1106    18.5684    98.0033 </r>
       <r>    -9.9212    10.9068   100.0692 </r>
       <r>    -9.7318    10.1914   101.9997 </r>
       <r>    -9.5424     0.0126   102.0021 </r>
       <r>    -9.3530    10.4286   103.9775 </r>
       <r>    -9.1635     0.4264   104.0583 </r>
       <r>    -8.9741    19.8783   107.8236 </r>
       <r>    -8.7847     4.2394   108.6267 </r>
       <r>    -8.5953     7.2532   110.0006 </r>
       <r>    -8.4058    19.2469   113.6464 </r>
       <r>    -8.2164    15.0163   116.4908 </r>
       <r>    -8.0270     7.9676   118.0000 </r>
       <r>    -7.8376     9.4896   119.7976 </r>
       <r>    -7.6482     7.4964   121.2176 </r>
       <r>    -7.4587    14.6879   123.9998 </r>
       <r>    -7.2693     0.0011   124.0000 </r>
       <r>    -7.0799     0.0000   124.0000 </r>
       <r>    -6.8905     0.0000   124.0000 </r>
       <r>    -6.7010     4.1664   124.7892 </r>
       <r>    -6.5116     6.3921   126.0000 </r>
       <r>    -6.3222     0.0000   126.0000 </r>
       <r>    -6.1328     0.0011   126.0002 </r>
       <r>    -5.9434    10.0234   127.8989 </r>
       <r>    -5.7539     0.5340   128.0000 </r>
       <r>    -5.5645     0.0132   128.0025 </r>
       <r>    -5.3751    10.4421   129.9805 </r>
       <r>    -5.1857     0.1030   130.0000 </r>
       <r>    -4.9963     0.0000   130.0000 </r>
       <r>    -4.8068     0.0000   130.0000 </r>
       <r>    -4.6174     0.0000   130.0000 </r>
       <r>    -4.4280     0.0000   130.0000 </r>
       <r>    -4.2386     0.0000   130.0000 </r>
       <r>    -4.0491     0.2564   130.0486 </r>
       <r>    -3.8597    10.2982   131.9993 </r>
       <r>    -3.6703     0.0041   132.0001 </r>
       <r>    -3.4809     9.8135   133.8590 </r>
       <r>    -3.2915    14.8304   136.6682 </r>
       <r>    -3.1020    21.8849   140.8136 </r>
       <r>    -2.9126     9.7687   142.6641 </r>
       <r>    -2.7232    18.0691   146.0868 </r>
       <r>    -2.5338    21.8243   150.2208 </r>
       <r>    -2.3443    45.1582   158.7747 </r>
       <r>    -2.1549    28.8190   164.2337 </r>
       <r>    -1.9655    39.4047   171.6978 </r>
       <r>    -1.7761    38.8112   179.0495 </r>
       <r>    -1.5867    25.1704   183.8173 </r>
       <r>    -1.3972    31.5064   189.7853 </r>
       <r>    -1.2078    35.1268   196.4391 </r>
       <r>    -1.0184    36.5123   203.3554 </r>
       <r>    -0.8290    16.2237   206.4285 </r>
       <r>    -0.6395    40.5362   214.1070 </r>
       <r>    -0.4501    33.0056   220.3590 </r>
       <r>    -0.2607    36.4997   227.2728 </r>
       <r>    -0.0713    35.3587   233.9705 </r>
       <r>     0.1181    34.1999   240.4487 </r>
       <r>     0.3076    46.6851   249.2919 </r>
       <r>     0.4970    28.2183   254.6371 </r>
       <r>     0.6864    48.1702   263.7616 </r>
       <r>     0.8758    27.4344   268.9583 </r>
       <r>     1.0653    33.8185   275.3642 </r>
       <r>     1.2547    31.7759   281.3833 </r>
       <r>     1.4441    34.3947   287.8984 </r>
       <r>     1.6335    11.8826   290.1493 </r>
       <r>     1.8229    26.4245   295.1546 </r>
       <r>     2.0124    23.0440   299.5197 </r>
       <r>     2.2018     2.5356   300.0000 </r>
       <r>     2.3912     0.0000   300.0000 </r>
       <r>     2.5806     0.0000   300.0000 </r>
       <r>     2.7701     0.0000   300.0000 </r>
       <r>     2.9595     0.0000   300.0000 </r>
       <r>     3.1489     0.0000   300.0000 </r>
       <r>     3.3383     0.0000   300.0000 </r>
       <r>     3.5277     0.3117   300.0590 </r>
       <r>     3.7172    13.1604   302.5519 </r>
       <r>     3.9066    17.7954   305.9228 </r>
       <r>     4.0960    20.9580   309.8927 </r>
       <r>     4.2854    12.7829   312.3140 </r>
       <r>     4.4749    21.4453   316.3763 </r>
       <r>     4.6643     8.5935   318.0040 </r>
       <r>     4.8537    14.2286   320.6993 </r>
       <r>     5.0431    23.2623   325.1057 </r>
       <r>     5.2325     9.9747   326.9951 </r>
       <r>     5.4220    15.9220   330.0111 </r>
       <r>     5.6114    20.9437   333.9783 </r>
       <r>     5.8008    12.7796   336.3990 </r>
       <r>     5.9902    12.0144   338.6748 </r>
[...]
        <r>  0.0003  0.0007  0.0001  0.0002  0.0000  0.0000  0.0000  0.0000  0.0000 </r>
        <r>  0.0006  0.0011  0.0000  0.0008  0.0000  0.0000  0.0000  0.0000  0.0000 </r>
        <r>  0.0006  0.0004  0.0005  0.0000  0.0000  0.0000  0.0000  0.0000  0.0000 </r>
        <r>  0.0002  0.0001  0.0014  0.0002  0.0000  0.0000  0.0000  0.0000  0.0000 </r>
        <r>  0.0006  0.0013  0.0009  0.0023  0.0000  0.0000  0.0000  0.0000  0.0000 </r>
        <r>  0.0003  0.0005  0.0019  0.0021  0.0000  0.0000  0.0000  0.0000  0.0000 </r>
        <r>  0.0034  0.0003  0.0017  0.0002  0.0000  0.0000  0.0000  0.0000  0.0000 </r>
        <r>  0.0015  0.0014  0.0000  0.0038  0.0000  0.0000  0.0000  0.0000  0.0000 </r>
        <r>  0.0000  0.0013  0.0003  0.0015  0.0000  0.0000  0.0000  0.0000  0.0000 </r>
        <r>  0.0002  0.0010  0.0001  0.0011  0.0000  0.0000  0.0000  0.0000  0.0000 </r>
        <r>  0.0002  0.0006  0.0003  0.0013  0.0000  0.0000  0.0000  0.0000  0.0000 </r>
        <r>  0.0002  0.0005  0.0006  0.0004  0.0000  0.0000  0.0000  0.0000  0.0000 </r>
        <r>  0.0006  0.0004  0.0003  0.0002  0.0000  0.0000  0.0000  0.0000  0.0000 </r>
        <r>  0.0018  0.0000  0.0006  0.0006  0.0000  0.0000  0.0000  0.0000  0.0000 </r>
        <r>  0.0002  0.0002  0.0003  0.0005  0.0000  0.0000  0.0000  0.0000  0.0000 </r>
        <r>  0.0006  0.0004  0.0002  0.0069  0.0000  0.0000  0.0000  0.0000  0.0000 </r>
        <r>  0.0006  0.0003  0.0013  0.0008  0.0000  0.0000  0.0000  0.0000  0.0000 </r>
        <r>  0.0001  0.0001  0.0001  0.0005  0.0000  0.0000  0.0000  0.0000  0.0000 </r>
        <r>  0.0015  0.0003  0.0009  0.0007  0.0000  0.0000  0.0000  0.0000  0.0000 </r>
        <r>  0.0004  0.0001  0.0006  0.0002  0.0000  0.0000  0.0000  0.0000  0.0000 </r>
        <r>  0.0013  0.0003  0.0001  0.0010  0.0000  0.0000  0.0000  0.0000  0.0000 </r>
        <r>  0.0003  0.0003  0.0000  0.0006  0.0000  0.0000  0.0000  0.0000  0.0000 </r>
        <r>  0.0015  0.0029  0.0005  0.0001  0.0000  0.0000  0.0000  0.0000  0.0000 </r>
        <r>  0.0008  0.0017  0.0001  0.0006  0.0000  0.0000  0.0000  0.0000  0.0000 </r>
        <r>  0.0003  0.0002  0.0009  0.0011  0.0000  0.0000  0.0000  0.0000  0.0000 </r>
        <r>  0.0007  0.0003  0.0002  0.0003  0.0000  0.0000  0.0000  0.0000  0.0000 </r>
        <r>  0.0007  0.0020  0.0017  0.0007  0.0000  0.0000  0.0000  0.0000  0.0000 </r>
        <r>  0.0012  0.0019  0.0008  0.0002  0.0000  0.0000  0.0000  0.0000  0.0000 </r>
        <r>  0.0001  0.0013  0.0010  0.0012  0.0000  0.0000  0.0000  0.0000  0.0000 </r>
        <r>  0.0009  0.0002  0.0012  0.0001  0.0000  0.0000  0.0000  0.0000  0.0000 </r>
        <r>  0.0002  0.0037  0.0003  0.0014  0.0000  0.0000  0.0000  0.0000  0.0000 </r>
        <r>  0.0005  0.0008  0.0004  0.0001  0.0000  0.0000  0.0000  0.0000  0.0000 </r>
        <r>  0.0001  0.0001  0.0003  0.0009  0.0000  0.0000  0.0000  0.0000  0.0000 </r>
        <r>  0.0003  0.0010  0.0006  0.0003  0.0000  0.0000  0.0000  0.0000  0.0000 </r>
        <r>  0.0005  0.0005  0.0036  0.0001  0.0000  0.0000  0.0000  0.0000  0.0000 </r>
        <r>  0.0044  0.0002  0.0001  0.0014  0.0000  0.0000  0.0000  0.0000  0.0000 </r>
        <r>  0.0001  0.0003  0.0004  0.0001  0.0000  0.0000  0.0000  0.0000  0.0000 </r>
        <r>  0.0005  0.0001  0.0006  0.0027  0.0000  0.0000  0.0000  0.0000  0.0000 </r>
        <r>  0.0002  0.0013  0.0003  0.0001  0.0000  0.0000  0.0000  0.0000  0.0000 </r>
       </set>
       <set comment="band 183">
        <r>  0.0001  0.0001  0.0007  0.0002  0.0000  0.0000  0.0000  0.0000  0.0000 </r>
        <r>  0.0010  0.0000  0.0004  0.0000  0.0000  0.0000  0.0000  0.0000  0.0000 </r>
        <r>  0.0002  0.0002  0.0006  0.0008  0.0000  0.0000  0.0000  0.0000  0.0000 </r>
        <r>  0.0002  0.0000  0.0005  0.0006  0.0000  0.0000  0.0000  0.0000  0.0000 </r>
        <r>  0.0007  0.0027  0.0020  0.0038  0.0000  0.0000  0.0000  0.0000  0.0000 </r>
        <r>  0.0000  0.0005  0.0001  0.0002  0.0000  0.0000  0.0000  0.0000  0.0000 </r>
        <r>  0.0004  0.0002  0.0001  0.0002  0.0000  0.0000  0.0000  0.0000  0.0000 </r>
        <r>  0.0004  0.0003  0.0008  0.0087  0.0000  0.0000  0.0000  0.0000  0.0000 </r>
        <r>  0.0002  0.0008  0.0006  0.0001  0.0000  0.0000  0.0000  0.0000  0.0000 </r>
        <r>  0.0000  0.0005  0.0002  0.0008  0.0000  0.0000  0.0000  0.0000  0.0000 </r>
        <r>  0.0001  0.0008  0.0004  0.0004  0.0000  0.0000  0.0000  0.0000  0.0000 </r>
        <r>  0.0005  0.0007  0.0003  0.0003  0.0000  0.0000  0.0000  0.0000  0.0000 </r>
        <r>  0.0000  0.0001  0.0001  0.0010  0.0000  0.0000  0.0000  0.0000  0.0000 </r>
        <r>  0.0002  0.0000  0.0022  0.0002  0.0000  0.0000  0.0000  0.0000  0.0000 </r>
        <r>  0.0012  0.0007  0.0017  0.0007  0.0000  0.0000  0.0000  0.0000  0.0000 </r>
        <r>  0.0002  0.0007  0.0007  0.0003  0.0000  0.0000  0.0000  0.0000  0.0000 </r>
        <r>  0.0004  0.0002  0.0012  0.0001  0.0000  0.0000  0.0000  0.0000  0.0000 </r>
        <r>  0.0002  0.0009  0.0010  0.0008  0.0000  0.0000  0.0000  0.0000  0.0000 </r>
        <r>  0.0019  0.0039  0.0006  0.0001  0.0000  0.0000  0.0000  0.0000  0.0000 </r>
        <r>  0.0001  0.0005  0.0008  0.0001  0.0000  0.0000  0.0000  0.0000  0.0000 </r>
        <r>  0.0003  0.0007  0.0007  0.0005  0.0000  0.0000  0.0000  0.0000  0.0000 </r>
        <r>  0.0008  0.0000  0.0015  0.0000  0.0000  0.0000  0.0000  0.0000  0.0000 </r>
        <r>  0.0001  0.0001  0.0001  0.0004  0.0000  0.0000  0.0000  0.0000  0.0000 </r>
        <r>  0.0001  0.0003  0.0006  0.0000  0.0000  0.0000  0.0000  0.0000  0.0000 </r>
        <r>  0.0008  0.0004  0.0010  0.0013  0.0000  0.0000  0.0000  0.0000  0.0000 </r>
        <r>  0.0001  0.0008  0.0000  0.0004  0.0000  0.0000  0.0000  0.0000  0.0000 </r>
        <r>  0.0003  0.0019  0.0004  0.0004  0.0000  0.0000  0.0000  0.0000  0.0000 </r>
        <r>  0.0002  0.0001  0.0006  0.0006  0.0000  0.0000  0.0000  0.0000  0.0000 </r>
        <r>  0.0006  0.0004  0.0009  0.0022  0.0000  0.0000  0.0000  0.0000  0.0000 </r>
        <r>  0.0004  0.0004  0.0003  0.0006  0.0000  0.0000  0.0000  0.0000  0.0000 </r>
        <r>  0.0005  0.0010  0.0004  0.0003  0.0000  0.0000  0.0000  0.0000  0.0000 </r>
        <r>  0.0006  0.0002  0.0001  0.0006  0.0000  0.0000  0.0000  0.0000  0.0000 </r>
        <r>  0.0003  0.0011  0.0013  0.0001  0.0000  0.0000  0.0000  0.0000  0.0000 </r>
        <r>  0.0004  0.0046  0.0008  0.0010  0.0000  0.0000  0.0000  0.0000  0.0000 </r>
        <r>  0.0005  0.0002  0.0004  0.0042  0.0000  0.0000  0.0000  0.0000  0.0000 </r>
        <r>  0.0009  0.0011  0.0002  0.0004  0.0000  0.0000  0.0000  0.0000  0.0000 </r>
        <r>  0.0057  0.0006  0.0008  0.0015  0.0000  0.0000  0.0000  0.0000  0.0000 </r>
        <r>  0.0001  0.0009  0.0007  0.0008  0.0000  0.0000  0.0000  0.0000  0.0000 </r>
        <r>  0.0000  0.0007  0.0014  0.0002  0.0000  0.0000  0.0000  0.0000  0.0000 </r>
        <r>  0.0008  0.0011  0.0004  0.0017  0.0000  0.0000  0.0000  0.0000  0.0000 </r>
        <r>  0.0001  0.0005  0.0003  0.0002  0.0000  0.0000  0.0000  0.0000  0.0000 </r>
        <r>  0.0004  0.0009  0.0023  0.0000  0.0000  0.0000  0.0000  0.0000  0.0000 </r>
        <r>  0.0002  0.0012  0.0010  0.0001  0.0000  0.0000  0.0000  0.0000  0.0000 </r>
        <r>  0.0001  0.0019  0.0005  0.0009  0.0000  0.0000  0.0000  0.0000  0.0000 </r>
        <r>  0.0002  0.0009  0.0006  0.0000  0.0000  0.0000  0.0000  0.0000  0.0000 </r>
        <r>  0.0001  0.0004  0.0018  0.0018  0.0000  0.0000  0.0000  0.0000  0.0000 </r>
        <r>  0.0010  0.0000  0.0001  0.0017  0.0000  0.0000  0.0000  0.0000  0.0000 </r>
        <r>  0.0001  0.0002  0.0001  0.0002  0.0000  0.0000  0.0000  0.0000  0.0000 </r>
        <r>  0.0004  0.0000  0.0004  0.0002  0.0000  0.0000  0.0000  0.0000  0.0000 </r>
        <r>  0.0008  0.0001  0.0006  0.0014  0.0000  0.0000  0.0000  0.0000  0.0000 </r>
        <r>  0.0008  0.0003  0.0004  0.0004  0.0000  0.0000  0.0000  0.0000  0.0000 </r>
        <r>  0.0002  0.0001  0.0014  0.0012  0.0000  0.0000  0.0000  0.0000  0.0000 </r>
        <r>  0.0002  0.0005  0.0017  0.0024  0.0000  0.0000  0.0000  0.0000  0.0000 </r>
        <r>  0.0019  0.0020  0.0001  0.0010  0.0000  0.0000  0.0000  0.0000  0.0000 </r>
        <r>  0.0002  0.0005  0.0002  0.0003  0.0000  0.0000  0.0000  0.0000  0.0000 </r>
        <r>  0.0020  0.0031  0.0001  0.0022  0.0000  0.0000  0.0000  0.0000  0.0000 </r>
        <r>  0.0009  0.0018  0.0002  0.0005  0.0000  0.0000  0.0000  0.0000  0.0000 </r>
        <r>  0.0004  0.0012  0.0002  0.0005  0.0000  0.0000  0.0000  0.0000  0.0000 </r>
        <r>  0.0004  0.0009  0.0039  0.0004  0.0000  0.0000  0.0000  0.0000  0.0000 </r>
        <r>  0.0002  0.0037  0.0012  0.0022  0.0000  0.0000  0.0000  0.0000  0.0000 </r>
        <r>  0.0011  0.0005  0.0011  0.0010  0.0000  0.0000  0.0000  0.0000  0.0000 </r>
        <r>  0.0003  0.0005  0.0004  0.0010  0.0000  0.0000  0.0000  0.0000  0.0000 </r>
        <r>  0.0001  0.0001  0.0013  0.0005  0.0000  0.0000  0.0000  0.0000  0.0000 </r>
        <r>  0.0026  0.0003  0.0003  0.0050  0.0000  0.0000  0.0000  0.0000  0.0000 </r>
        <r>  0.0002  0.0000  0.0012  0.0004  0.0000  0.0000  0.0000  0.0000  0.0000 </r>
       </set>
       <set comment="band 184">
        <r>  0.0003  0.0003  0.0004  0.0006  0.0000  0.0000  0.0000  0.0000  0.0000 </r>
        <r>  0.0015  0.0001  0.0012  0.0012  0.0000  0.0000  0.0000  0.0000  0.0000 </r>
        <r>  0.0010  0.0005  0.0005  0.0003  0.0000  0.0000  0.0000  0.0000  0.0000 </r>
        <r>  0.0007  0.0034  0.0007  0.0000  0.0000  0.0000  0.0000  0.0000  0.0000 </r>
        <r>  0.0004  0.0002  0.0002  0.0004  0.0000  0.0000  0.0000  0.0000  0.0000 </r>
        <r>  0.0003  0.0002  0.0001  0.0006  0.0000  0.0000  0.0000  0.0000  0.0000 </r>
        <r>  0.0003  0.0011  0.0024  0.0015  0.0000  0.0000  0.0000  0.0000  0.0000 </r>
        <r>  0.0001  0.0006  0.0005  0.0007  0.0000  0.0000  0.0000  0.0000  0.0000 </r>
        <r>  0.0003  0.0004  0.0005  0.0000  0.0000  0.0000  0.0000  0.0000  0.0000 </r>
        <r>  0.0010  0.0038  0.0004  0.0000  0.0000  0.0000  0.0000  0.0000  0.0000 </r>
        <r>  0.0001  0.0004  0.0001  0.0000  0.0000  0.0000  0.0000  0.0000  0.0000 </r>
        <r>  0.0002  0.0022  0.0004  0.0005  0.0000  0.0000  0.0000  0.0000  0.0000 </r>
        <r>  0.0003  0.0003  0.0006  0.0014  0.0000  0.0000  0.0000  0.0000  0.0000 </r>
        <r>  0.0003  0.0029  0.0001  0.0004  0.0000  0.0000  0.0000  0.0000  0.0000 </r>
        <r>  0.0008  0.0006  0.0001  0.0003  0.0000  0.0000  0.0000  0.0000  0.0000 </r>
        <r>  0.0008  0.0005  0.0012  0.0012  0.0000  0.0000  0.0000  0.0000  0.0000 </r>
        <r>  0.0001  0.0009  0.0022  0.0003  0.0000  0.0000  0.0000  0.0000  0.0000 </r>
        <r>  0.0005  0.0001  0.0034  0.0001  0.0000  0.0000  0.0000  0.0000  0.0000 </r>
        <r>  0.0001  0.0032  0.0000  0.0005  0.0000  0.0000  0.0000  0.0000  0.0000 </r>
        <r>  0.0000  0.0006  0.0003  0.0004  0.0000  0.0000  0.0000  0.0000  0.0000 </r>
        <r>  0.0002  0.0020  0.0014  0.0016  0.0000  0.0000  0.0000  0.0000  0.0000 </r>
        <r>  0.0001  0.0002  0.0001  0.0012  0.0000  0.0000  0.0000  0.0000  0.0000 </r>
        <r>  0.0002  0.0001  0.0003  0.0002  0.0000  0.0000  0.0000  0.0000  0.0000 </r>
        <r>  0.0000  0.0003  0.0001  0.0004  0.0000  0.0000  0.0000  0.0000  0.0000 </r>
        <r>  0.0006  0.0001  0.0001  0.0004  0.0000  0.0000  0.0000  0.0000  0.0000 </r>
        <r>  0.0002  0.0008  0.0001  0.0012  0.0000  0.0000  0.0000  0.0000  0.0000 </r>
        <r>  0.0016  0.0010  0.0018  0.0018  0.0000  0.0000  0.0000  0.0000  0.0000 </r>
        <r>  0.0001  0.0012  0.0007  0.0004  0.0000  0.0000  0.0000  0.0000  0.0000 </r>
        <r>  0.0005  0.0003  0.0020  0.0006  0.0000  0.0000  0.0000  0.0000  0.0000 </r>
        <r>  0.0003  0.0004  0.0003  0.0001  0.0000  0.0000  0.0000  0.0000  0.0000 </r>
        <r>  0.0005  0.0002  0.0001  0.0003  0.0000  0.0000  0.0000  0.0000  0.0000 </r>
        <r>  0.0000  0.0001  0.0008  0.0001  0.0000  0.0000  0.0000  0.0000  0.0000 </r>
        <r>  0.0003  0.0009  0.0002  0.0007  0.0000  0.0000  0.0000  0.0000  0.0000 </r>
        <r>  0.0000  0.0001  0.0005  0.0010  0.0000  0.0000  0.0000  0.0000  0.0000 </r>
        <r>  0.0003  0.0005  0.0014  0.0013  0.0000  0.0000  0.0000  0.0000  0.0000 </r>
        <r>  0.0000  0.0002  0.0001  0.0018  0.0000  0.0000  0.0000  0.0000  0.0000 </r>
        <r>  0.0010  0.0040  0.0003  0.0014  0.0000  0.0000  0.0000  0.0000  0.0000 </r>
        <r>  0.0000  0.0003  0.0003  0.0006  0.0000  0.0000  0.0000  0.0000  0.0000 </r>
        <r>  0.0001  0.0005  0.0001  0.0004  0.0000  0.0000  0.0000  0.0000  0.0000 </r>
        <r>  0.0001  0.0003  0.0007  0.0000  0.0000  0.0000  0.0000  0.0000  0.0000 </r>
        <r>  0.0008  0.0001  0.0001  0.0003  0.0000  0.0000  0.0000  0.0000  0.0000 </r>
        <r>  0.0018  0.0005  0.0001  0.0038  0.0000  0.0000  0.0000  0.0000  0.0000 </r>
        <r>  0.0003  0.0001  0.0007  0.0001  0.0000  0.0000  0.0000  0.0000  0.0000 </r>
        <r>  0.0006  0.0008  0.0001  0.0007  0.0000  0.0000  0.0000  0.0000  0.0000 </r>
        <r>  0.0000  0.0003  0.0004  0.0003  0.0000  0.0000  0.0000  0.0000  0.0000 </r>
        <r>  0.0012  0.0014  0.0008  0.0005  0.0000  0.0000  0.0000  0.0000  0.0000 </r>
        <r>  0.0000  0.0002  0.0007  0.0000  0.0000  0.0000  0.0000  0.0000  0.0000 </r>
        <r>  0.0009  0.0004  0.0005  0.0002  0.0000  0.0000  0.0000  0.0000  0.0000 </r>
        <r>  0.0003  0.0013  0.0047  0.0004  0.0000  0.0000  0.0000  0.0000  0.0000 </r>
        <r>  0.0001  0.0000  0.0003  0.0006  0.0000  0.0000  0.0000  0.0000  0.0000 </r>
        <r>  0.0027  0.0000  0.0010  0.0001  0.0000  0.0000  0.0000  0.0000  0.0000 </r>
        <r>  0.0000  0.0005  0.0002  0.0006  0.0000  0.0000  0.0000  0.0000  0.0000 </r>
        <r>  0.0013  0.0003  0.0019  0.0001  0.0000  0.0000  0.0000  0.0000  0.0000 </r>
        <r>  0.0022  0.0000  0.0010  0.0005  0.0000  0.0000  0.0000  0.0000  0.0000 </r>
        <r>  0.0006  0.0001  0.0005  0.0001  0.0000  0.0000  0.0000  0.0000  0.0000 </r>
        <r>  0.0000  0.0019  0.0008  0.0000  0.0000  0.0000  0.0000  0.0000  0.0000 </r>
        <r>  0.0002  0.0008  0.0010  0.0020  0.0000  0.0000  0.0000  0.0000  0.0000 </r>
        <r>  0.0002  0.0012  0.0001  0.0009  0.0000  0.0000  0.0000  0.0000  0.0000 </r>
        <r>  0.0006  0.0000  0.0006  0.0003  0.0000  0.0000  0.0000  0.0000  0.0000 </r>
        <r>  0.0004  0.0002  0.0009  0.0005  0.0000  0.0000  0.0000  0.0000  0.0000 </r>
        <r>  0.0028  0.0013  0.0018  0.0007  0.0000  0.0000  0.0000  0.0000  0.0000 </r>
        <r>  0.0002  0.0002  0.0017  0.0003  0.0000  0.0000  0.0000  0.0000  0.0000 </r>
        <r>  0.0000  0.0006  0.0001  0.0010  0.0000  0.0000  0.0000  0.0000  0.0000 </r>
        <r>  0.0003  0.0002  0.0041  0.0005  0.0000  0.0000  0.0000  0.0000  0.0000 </r>
        <r>  0.0000  0.0000  0.0001  0.0001  0.0000  0.0000  0.0000  0.0000  0.0000 </r>
       </set>
      </set>
     </set>
    </set>
   </array>
  </projected>
 </calculation>
 <structure name="finalpos" >
  <crystal>
   <varray name="basis" >
    <v>      10.25000000       0.00000000       0.00000000 </v>
    <v>       0.00000000      10.25000000       0.00000000 </v>
    <v>       0.00000000       0.00000000      12.35000000 </v>
   </varray>
   <i name="volume">   1297.52187500 </i>
   <varray name="rec_basis" >
    <v>       0.09756098       0.00000000       0.00000000 </v>
    <v>       0.00000000       0.09756098       0.00000000 </v>
    <v>       0.00000000       0.00000000       0.08097166 </v>
   </varray>
  </crystal>
  <varray name="positions" >
   <v>       0.62596293       0.91042049       0.00473563 </v>
   <v>       0.72937366       0.57105171       0.61488178 </v>
   <v>       0.21486927       0.15253366       0.03184202 </v>
   <v>       0.15529756       0.69016195       0.19139838 </v>
   <v>       0.26959512       0.17951122       0.32746235 </v>
   <v>       0.20799805       0.05642615       0.65919514 </v>
   <v>       0.75082927       0.56963024       0.22377976 </v>
   <v>       0.51759902       0.06831902       0.31609231 </v>
   <v>       0.98107317       0.93006341       0.59345992 </v>
   <v>       0.92441171       0.37607220       0.23275709 </v>
   <v>       0.43705854       0.97555707       0.53247045 </v>
   <v>       0.88904683       0.59803805       0.02175514 </v>
   <v>       0.02426107       0.35961854       0.73887530 </v>
   <v>       0.31030049       0.53071805       0.58550283 </v>
   <v>       0.59372098       0.25005073       0.99778138 </v>
   <v>       0.82926341       0.21963122       0.83094737 </v>
   <v>       0.62755805       0.53535317       0.98485830 </v>
   <v>       0.45996976       0.40508390       0.43816437 </v>
   <v>       0.48091707       0.64906439       0.15270607 </v>
   <v>       0.21683024       0.74421561       0.86395951 </v>
   <v>       0.67711122       0.26418634       0.21805749 </v>
   <v>       0.96470439       0.68312878       0.72063806 </v>
   <v>       0.00948600       0.36329366       0.45459676 </v>
   <v>       0.91132195       0.20599122       0.04262121 </v>
   <v>       0.70673463       0.13109854       0.45285749 </v>
   <v>       0.54436780       0.63526341       0.78020729 </v>
   <v>       0.63298439       0.86334049       0.23547854 </v>
   <v>       0.68652878       0.04206010       0.76755466 </v>
   <v>       0.60111024       0.26905268       0.62334980 </v>
   <v>       0.91402829       0.88541561       0.00496998 </v>
   <v>       0.30521561       0.61199317       0.33827045 </v>
   <v>       0.27217659       0.47633366       0.88446154 </v>
   <v>       0.09313239       0.42759512       0.98673684 </v>
   <v>       0.19165073       0.70622634       0.48746397 </v>
   <v>       0.97243805       0.62191024       0.45875466 </v>
   <v>       0.37346537       0.10892293       0.80365020 </v>
   <v>       0.38265659       0.89453268       0.22377814 </v>
   <v>       0.44868878       0.92281171       0.82317409 </v>
   <v>       0.20370049       0.91598537       0.49574494 </v>
   <v>       0.83363024       0.74437659       0.53846316 </v>
   <v>       0.03148995       0.18736195       0.58479109 </v>
   <v>       0.51579415       0.61133366       0.33674332 </v>
   <v>       0.39201854       0.62807902       0.95732794 </v>
   <v>       0.19846634       0.37256683       0.13597733 </v>
   <v>       0.18121951       0.56111707       0.74309474 </v>
   <v>       0.75996000       0.37223512       0.07191822 </v>
   <v>       0.76949561       0.55676000       0.81914170 </v>
   <v>       0.07000605       0.25293366       0.89537652 </v>
   <v>       0.95223902       0.64042439       0.28882510 </v>
   <v>       0.06892234       0.22413366       0.18327368 </v>
   <v>       0.78377073       0.06017385       0.96927935 </v>
   <v>       0.83770732       0.11223707       0.60081619 </v>
   <v>       0.46514829       0.19494829       0.46386397 </v>
   <v>       0.70635122       0.71762341       0.08959676 </v>
   <v>       0.79200976       0.38403220       0.71863401 </v>
   <v>       0.43663902       0.18236000       0.15265506 </v>
   <v>       0.53429366       0.23917854       0.81143320 </v>
   <v>       0.56933366       0.85434732       0.69912065 </v>
   <v>       0.41600878       0.99555122       0.07561725 </v>
   <v>       0.23031512       0.43802537       0.41306235 </v>
   <v>       0.52583024       0.48802244       0.60497490 </v>
   <v>       0.79654537       0.32452000       0.37673279 </v>
   <v>       0.10549854       0.89147122       0.75411498 </v>
   <v>       0.75388878       0.04027727       0.29274980 </v>
   <v>       0.08158644       0.73987902       0.02544478 </v>
  </varray>
 </structure>
</modeling>
