LPSC                                    
           1
    10.250000    0.000000    0.000000
     0.000000   10.250000    0.000000
     0.000000    0.000000   12.350000
   Li   P    S    Cl
  30   5  25   5
Direct configuration=     1
   0.62596293  0.91042049  0.00473563
   0.72937366  0.57105171  0.61488178
   0.21486927  0.15253366  0.03184202
   0.15529756  0.69016195  0.19139838
   0.26959512  0.17951122  0.32746235
   0.20799805  0.05642615  0.65919514
   0.75082927  0.56963024  0.22377976
   0.51759902  0.06831902  0.31609231
   0.98107317  0.93006341  0.59345992
   0.92441171  0.37607220  0.23275709
   0.43705854  0.97555707  0.53247045
   0.88904683  0.59803805  0.02175514
   0.02426107  0.35961854  0.73887530
   0.31030049  0.53071805  0.58550283
   0.59372098  0.25005073  0.99778138
   0.82926341  0.21963122  0.83094737
   0.62755805  0.53535317  0.98485830
   0.45996976  0.40508390  0.43816437
   0.48091707  0.64906439  0.15270607
   0.21683024  0.74421561  0.86395951
   0.67711122  0.26418634  0.21805749
   0.96470439  0.68312878  0.72063806
   0.00948600  0.36329366  0.45459676
   0.91132195  0.20599122  0.04262121
   0.70673463  0.13109854  0.45285749
   0.54436780  0.63526341  0.78020729
   0.63298439  0.86334049  0.23547854
   0.68652878  0.04206010  0.76755466
   0.60111024  0.26905268  0.62334980
   0.91402829  0.88541561  0.00496998
   0.30521561  0.61199317  0.33827045
   0.27217659  0.47633366  0.88446154
   0.09313239  0.42759512  0.98673684
   0.19165073  0.70622634  0.48746397
   0.97243805  0.62191024  0.45875466
   0.37346537  0.10892293  0.80365020
   0.38265659  0.89453268  0.22377814
   0.44868878  0.92281171  0.82317409
   0.20370049  0.91598537  0.49574494
   0.83363024  0.74437659  0.53846316
   0.03148995  0.18736195  0.58479109
   0.51579415  0.61133366  0.33674332
   0.39201854  0.62807902  0.95732794
   0.19846634  0.37256683  0.13597733
   0.18121951  0.56111707  0.74309474
   0.75996000  0.37223512  0.07191822
   0.76949561  0.55676000  0.81914170
   0.07000605  0.25293366  0.89537652
   0.95223902  0.64042439  0.28882510
   0.06892234  0.22413366  0.18327368
   0.78377073  0.06017385  0.96927935
   0.83770732  0.11223707  0.60081619
   0.46514829  0.19494829  0.46386397
   0.70635122  0.71762341  0.08959676
   0.79200976  0.38403220  0.71863401
   0.43663902  0.18236000  0.15265506
   0.53429366  0.23917854  0.81143320
   0.56933366  0.85434732  0.69912065
   0.41600878  0.99555122  0.07561725
   0.23031512  0.43802537  0.41306235
   0.52583024  0.48802244  0.60497490
   0.79654537  0.32452000  0.37673279
   0.10549854  0.89147122  0.75411498
   0.75388878  0.04027727  0.29274980
   0.08158644  0.73987902  0.02544478
