       N       E                     dE             d eps       ncg     rms          rms(c)
RMM:   1    -0.379749271743E+04   -0.37975E+04   -0.47001E+05   592   0.130E+03
RMM:   2     0.239654975174E+04    0.61940E+04   -0.73595E+04   592   0.251E+02
RMM:   3     0.795970090422E+03   -0.16006E+04   -0.23437E+04   592   0.134E+02
RMM:   4    -0.340989928473E+02   -0.83007E+03   -0.83461E+03   592   0.975E+01
RMM:   5    -0.397632763486E+03   -0.36353E+03   -0.33289E+03   592   0.634E+01
RMM:   6    -0.549817117316E+03   -0.15218E+03   -0.14019E+03   592   0.467E+01
RMM:   7    -0.622178188733E+03   -0.72361E+02   -0.69370E+02   592   0.357E+01
RMM:   8    -0.664314301530E+03   -0.42136E+02   -0.39718E+02   592   0.305E+01
RMM:   9    -0.774488783406E+03   -0.11017E+03   -0.10941E+03  2144   0.266E+01
RMM:  10    -0.830610727525E+03   -0.56122E+02   -0.55269E+02  2134   0.171E+01
RMM:  11    -0.843045787558E+03   -0.12435E+02   -0.12656E+02  2061   0.103E+01
RMM:  12    -0.850034781978E+03   -0.69890E+01   -0.69789E+01  2038   0.761E+00    0.741E+01
RMM:  13    -0.813083784034E+03    0.36951E+02   -0.91217E+01  1588   0.816E+00    0.486E+01
RMM:  14    -0.810260824204E+03    0.28230E+01   -0.77332E+01  1662   0.725E+00    0.162E+01
RMM:  15    -0.812335664054E+03   -0.20748E+01   -0.25265E+01  1845   0.444E+00    0.744E+00
RMM:  16    -0.811335562286E+03    0.10001E+01   -0.57144E+00  2012   0.278E+00    0.513E+00
RMM:  17    -0.810618368816E+03    0.71719E+00   -0.52694E+00  1936   0.218E+00    0.269E+00
RMM:  18    -0.810710954770E+03   -0.92586E-01   -0.23843E+00  1956   0.162E+00    0.199E+00
RMM:  19    -0.810721290093E+03   -0.10335E-01   -0.15315E+00  1939   0.134E+00    0.103E+00
RMM:  20    -0.810831155429E+03   -0.10987E+00   -0.12009E+00  2040   0.106E+00    0.168E+00
RMM:  21    -0.810870132692E+03   -0.38977E-01   -0.54863E-01  2031   0.840E-01    0.424E-01
RMM:  22    -0.810912947675E+03   -0.42815E-01   -0.39766E-01  2041   0.680E-01    0.466E-01
RMM:  23    -0.810931038659E+03   -0.18091E-01   -0.26338E-01  2020   0.558E-01    0.339E-01
RMM:  24    -0.810941854606E+03   -0.10816E-01   -0.15926E-01  2037   0.447E-01    0.209E-01
RMM:  25    -0.810951917657E+03   -0.10063E-01   -0.12066E-01  2040   0.374E-01    0.920E-02
RMM:  26    -0.810959665574E+03   -0.77479E-02   -0.77164E-02  2045   0.303E-01    0.165E-01
RMM:  27    -0.810964815680E+03   -0.51501E-02   -0.51867E-02  2050   0.251E-01    0.207E-01
RMM:  28    -0.810967610793E+03   -0.27951E-02   -0.35086E-02  2042   0.206E-01    0.111E-01
RMM:  29    -0.810970028905E+03   -0.24181E-02   -0.24143E-02  2049   0.173E-01    0.143E-01
RMM:  30    -0.810971507224E+03   -0.14783E-02   -0.17795E-02  2047   0.144E-01    0.110E-01
RMM:  31    -0.810972387350E+03   -0.88013E-03   -0.12509E-02  1932   0.120E-01    0.365E-02
RMM:  32    -0.810973011454E+03   -0.62410E-03   -0.81489E-03  2043   0.100E-01    0.191E-02
RMM:  33    -0.810973668983E+03   -0.65753E-03   -0.58345E-03  1944   0.861E-02    0.408E-02
RMM:  34    -0.810974048777E+03   -0.37979E-03   -0.44194E-03  1875   0.721E-02    0.287E-02
RMM:  35    -0.810974363424E+03   -0.31465E-03   -0.33956E-03  1861   0.611E-02    0.330E-02
RMM:  36    -0.810974568401E+03   -0.20498E-03   -0.22344E-03  1858   0.507E-02    0.387E-02
RMM:  37    -0.810974721780E+03   -0.15338E-03   -0.17059E-03  1849   0.433E-02    0.470E-02
RMM:  38    -0.810974790775E+03   -0.68995E-04   -0.10998E-03  1926   0.373E-02    0.239E-02
RMM:  39    -0.810974860467E+03   -0.69691E-04   -0.99753E-04  1967   0.317E-02    0.120E-02
RMM:  40    -0.810974904182E+03   -0.43715E-04   -0.61674E-04  1878   0.259E-02    0.730E-03
RMM:  41    -0.810974947911E+03   -0.43729E-04   -0.43904E-04  1809   0.215E-02    0.888E-03
RMM:  42    -0.810974983350E+03   -0.35439E-04   -0.33483E-04  1786   0.185E-02    0.125E-02
RMM:  43    -0.810975004741E+03   -0.21391E-04   -0.23690E-04  1671   0.157E-02    0.137E-02
RMM:  44    -0.810975003075E+03    0.16656E-05   -0.17052E-04  1790   0.140E-02    0.552E-03
RMM:  45    -0.810975009564E+03   -0.64882E-05   -0.14520E-04  1516   0.120E-02    0.452E-03
RMM:  46    -0.810975017804E+03   -0.82403E-05   -0.90295E-05  1422   0.103E-02    0.393E-03
RMM:  47    -0.810975024641E+03   -0.68366E-05   -0.74484E-05  1517   0.917E-03    0.379E-03
RMM:  48    -0.810975028407E+03   -0.37664E-05   -0.51973E-05  1358   0.818E-03    0.369E-03
RMM:  49    -0.810975031951E+03   -0.35444E-05   -0.38869E-05  1283   0.742E-03    0.373E-03
RMM:  50    -0.810975034323E+03   -0.23716E-05   -0.28190E-05  1218   0.687E-03    0.362E-03
RMM:  51    -0.810975035574E+03   -0.12507E-05   -0.21370E-05  1189   0.645E-03    0.369E-03
RMM:  52    -0.810975037467E+03   -0.18936E-05   -0.18205E-05  1269   0.612E-03    0.383E-03
RMM:  53    -0.810975038554E+03   -0.10871E-05   -0.13909E-05  1213   0.582E-03    0.396E-03
RMM:  54    -0.810975039059E+03   -0.50479E-06   -0.88307E-06  1056   0.559E-03
   1 F= -.81097504E+03 E0= -.81097400E+03  d E =-.810975E+03
