 vasp.5.4.4.18Apr17-6-g9f103f2a35 (build Jan 22 2020 12:49:05) complex          
  
 executed on Bebop BDW IPS19.0.5  date 2022.10.04  11:38:30
 running on   64 total cores
 distrk:  each k-point on   64 cores,    1 groups
 distr:  one band on NCORES_PER_BAND=   8 cores,    8 groups


--------------------------------------------------------------------------------------------------------


 INCAR:
 POTCAR:    PAW_PBE Li_sv 10Sep2004               
 POTCAR:    PAW_PBE P 06Sep2000                   
 POTCAR:    PAW_PBE S 06Sep2000                   
 POTCAR:    PAW_PBE Cl 06Sep2000                  
 POTCAR:    PAW_PBE Li_sv 10Sep2004               
   VRHFIN =Li: 1s2s2p                                                           
   LEXCH  = PE                                                                  
   EATOM  =   202.7858 eV,   14.9043 Ry                                         
                                                                                
   TITEL  = PAW_PBE Li_sv 10Sep2004                                             
   LULTRA =        F    use ultrasoft PP ?                                      
   IUNSCR =        0    unscreen: 0-lin 1-nonlin 2-no                           
   RPACOR =    0.000    partial core radius                                     
   POMASS =    7.010; ZVAL   =    3.000    mass and valenz                      
   RCORE  =    1.700    outmost cutoff radius                                   
   RWIGS  =    2.050; RWIGS  =    1.085    wigner-seitz radius (au A)           
   ENMAX  =  499.034; ENMIN  =  374.276 eV                                      
   ICORE  =        2    local potential                                         
   LCOR   =        T    correct aug charges                                     
   LPAW   =        T    paw PP                                                  
   EAUG   =  628.945                                                            
   RMAX   =    1.732    core radius for proj-oper                               
   RAUG   =    1.300    factor for augmentation sphere                          
   RDEP   =    1.728    radius for radial grids                                 
   RDEPT  =    1.329    core radius for aug-charge                              
                                                                                
   Atomic configuration                                                         
    4 entries                                                                   
     n  l   j            E        occ.                                          
     1  0  0.50       -51.8549   2.0000                                         
     2  0  0.50        -2.8742   1.0000                                         
     2  1  0.50        -1.3606   0.0000                                         
     3  2  1.50        -1.3606   0.0000                                         
   Description                                                                  
     l       E           TYP  RCUT    TYP  RCUT                                 
     0    -51.8548813     23  1.400                                             
     0     -2.8742052     23  1.700                                             
     1     -1.3605826     23  1.400                                             
     2     -1.3605826     23  1.400                                             
  local pseudopotential read in
  atomic valenz-charges read in
  non local Contribution for L=           0  read in
    real space projection operators read in
  non local Contribution for L=           0  read in
    real space projection operators read in
  non local Contribution for L=           1  read in
    real space projection operators read in
    PAW grid and wavefunctions read in
 
   number of l-projection  operators is LMAX  =           3
   number of lm-projection operators is LMMAX =           5
 
 POTCAR:    PAW_PBE P 06Sep2000                   
   VRHFIN =P : s2p3                                                             
   LEXCH  = PE                                                                  
   EATOM  =   176.0430 eV,   12.9388 Ry                                         
                                                                                
   TITEL  = PAW_PBE P 06Sep2000                                                 
   LULTRA =        F    use ultrasoft PP ?                                      
   IUNSCR =        1    unscreen: 0-lin 1-nonlin 2-no                           
   RPACOR =    1.500    partial core radius                                     
   POMASS =   30.974; ZVAL   =    5.000    mass and valenz                      
   RCORE  =    1.900    outmost cutoff radius                                   
   RWIGS  =    2.330; RWIGS  =    1.233    wigner-seitz radius (au A)           
   ENMAX  =  255.040; ENMIN  =  191.280 eV                                      
   ICORE  =        2    local potential                                         
   LCOR   =        T    correct aug charges                                     
   LPAW   =        T    paw PP                                                  
   EAUG   =  342.924                                                            
   DEXC   =    0.000                                                            
   RMAX   =    1.935    core radius for proj-oper                               
   RAUG   =    1.300    factor for augmentation sphere                          
   RDEP   =    1.931    radius for radial grids                                 
   RDEPT  =    1.794    core radius for aug-charge                              
                                                                                
   Atomic configuration                                                         
    6 entries                                                                   
     n  l   j            E        occ.                                          
     1  0  0.50     -2084.0982   2.0000                                         
     2  0  0.50      -173.9859   2.0000                                         
     2  1  1.50      -124.4865   6.0000                                         
     3  0  0.50       -13.9692   2.0000                                         
     3  1  0.50        -5.5067   3.0000                                         
     3  2  1.50        -5.4423   0.0000                                         
   Description                                                                  
     l       E           TYP  RCUT    TYP  RCUT                                 
     0    -13.9691527     23  1.900                                             
     0    -11.7794650     23  1.900                                             
     1     -5.5066937     23  1.900                                             
     1     -0.2556953     23  1.900                                             
     2     -5.4423304     23  1.900                                             
  local pseudopotential read in
  partial core-charges read in
  partial kinetic energy density read in
  atomic valenz-charges read in
  non local Contribution for L=           0  read in
    real space projection operators read in
  non local Contribution for L=           0  read in
    real space projection operators read in
  non local Contribution for L=           1  read in
    real space projection operators read in
  non local Contribution for L=           1  read in
    real space projection operators read in
    PAW grid and wavefunctions read in
 
   number of l-projection  operators is LMAX  =           4
   number of lm-projection operators is LMMAX =           8
 
 POTCAR:    PAW_PBE S 06Sep2000                   
   VRHFIN =S : s2p4                                                             
   LEXCH  = PE                                                                  
   EATOM  =   276.8230 eV,   20.3459 Ry                                         
                                                                                
   TITEL  = PAW_PBE S 06Sep2000                                                 
   LULTRA =        F    use ultrasoft PP ?                                      
   IUNSCR =        1    unscreen: 0-lin 1-nonlin 2-no                           
   RPACOR =    1.500    partial core radius                                     
   POMASS =   32.066; ZVAL   =    6.000    mass and valenz                      
   RCORE  =    1.900    outmost cutoff radius                                   
   RWIGS  =    2.200; RWIGS  =    1.164    wigner-seitz radius (au A)           
   ENMAX  =  258.689; ENMIN  =  194.016 eV                                      
   ICORE  =        2    local potential                                         
   LCOR   =        T    correct aug charges                                     
   LPAW   =        T    paw PP                                                  
   EAUG   =  335.092                                                            
   DEXC   =    0.000                                                            
   RMAX   =    1.942    core radius for proj-oper                               
   RAUG   =    1.300    factor for augmentation sphere                          
   RDEP   =    1.954    radius for radial grids                                 
   RDEPT  =    1.744    core radius for aug-charge                              
                                                                                
   Atomic configuration                                                         
    6 entries                                                                   
     n  l   j            E        occ.                                          
     1  0  0.50     -2405.8406   2.0000                                         
     2  0  0.50      -211.7007   2.0000                                         
     2  1  1.50      -156.4958   6.0000                                         
     3  0  0.50       -17.2562   2.0000                                         
     3  1  0.50        -7.0085   4.0000                                         
     3  2  1.50        -6.8029   0.0000                                         
   Description                                                                  
     l       E           TYP  RCUT    TYP  RCUT                                 
     0    -17.2561641     23  1.900                                             
     0    -15.8743224     23  1.900                                             
     1     -7.0085400     23  1.900                                             
     1     -2.7779785     23  1.900                                             
     2     -6.8029130     23  1.900                                             
  local pseudopotential read in
  partial core-charges read in
  partial kinetic energy density read in
  atomic valenz-charges read in
  non local Contribution for L=           0  read in
    real space projection operators read in
  non local Contribution for L=           0  read in
    real space projection operators read in
  non local Contribution for L=           1  read in
    real space projection operators read in
  non local Contribution for L=           1  read in
    real space projection operators read in
    PAW grid and wavefunctions read in
 
   number of l-projection  operators is LMAX  =           4
   number of lm-projection operators is LMMAX =           8
 
 POTCAR:    PAW_PBE Cl 06Sep2000                  
   VRHFIN =Cl: s2p5                                                             
   LEXCH  = PE                                                                  
   EATOM  =   409.7259 eV,   30.1140 Ry                                         
                                                                                
   TITEL  = PAW_PBE Cl 06Sep2000                                                
   LULTRA =        F    use ultrasoft PP ?                                      
   IUNSCR =        1    unscreen: 0-lin 1-nonlin 2-no                           
   RPACOR =    1.500    partial core radius                                     
   POMASS =   35.453; ZVAL   =    7.000    mass and valenz                      
   RCORE  =    1.900    outmost cutoff radius                                   
   RWIGS  =    2.100; RWIGS  =    1.111    wigner-seitz radius (au A)           
   ENMAX  =  262.472; ENMIN  =  196.854 eV                                      
   ICORE  =        2    local potential                                         
   LCOR   =        T    correct aug charges                                     
   LPAW   =        T    paw PP                                                  
   EAUG   =  356.192                                                            
   DEXC   =    0.000                                                            
   RMAX   =    1.945    core radius for proj-oper                               
   RAUG   =    1.300    factor for augmentation sphere                          
   RDEP   =    2.020    radius for radial grids                                 
   RDEPT  =    1.678    core radius for aug-charge                              
                                                                                
   Atomic configuration                                                         
    6 entries                                                                   
     n  l   j            E        occ.                                          
     1  0  0.50     -2751.1850   2.0000                                         
     2  0  0.50      -252.6861   2.0000                                         
     2  1  1.50      -191.6157   6.0000                                         
     3  0  0.50       -20.6916   2.0000                                         
     3  1  0.50        -8.5949   5.0000                                         
     3  2  1.50        -8.1635   0.0000                                         
   Description                                                                  
     l       E           TYP  RCUT    TYP  RCUT                                 
     0    -20.6915656     23  1.900                                             
     0    -22.0521482     23  1.900                                             
     1     -8.5948577     23  1.900                                             
     1     -5.3847331     23  1.900                                             
     2     -8.1634956     23  1.900                                             
  local pseudopotential read in
  partial core-charges read in
  partial kinetic energy density read in
  atomic valenz-charges read in
  non local Contribution for L=           0  read in
    real space projection operators read in
  non local Contribution for L=           0  read in
    real space projection operators read in
  non local Contribution for L=           1  read in
    real space projection operators read in
  non local Contribution for L=           1  read in
    real space projection operators read in
    PAW grid and wavefunctions read in
 
   number of l-projection  operators is LMAX  =           4
   number of lm-projection operators is LMMAX =           8
 

 ----------------------------------------------------------------------------- 
|                                                                             |
|  ADVICE TO THIS USER RUNNING 'VASP/VAMP'   (HEAR YOUR MASTER'S VOICE ...):  |
|                                                                             |
|      You have a (more or less) 'large supercell' and for larger cells       |
|      it might be more efficient to use real space projection opertators     |
|      So try LREAL= Auto  in the INCAR   file.                               |
|      Mind:          For very  accurate calculation you might also keep the  |
|      reciprocal projection scheme          (i.e. LREAL=.FALSE.)             |
|                                                                             |
 ----------------------------------------------------------------------------- 

  PAW_PBE Li_sv 10Sep2004               :
 energy of atom  1       EATOM= -202.7858
 kinetic energy error for atom=    0.0143 (will be added to EATOM!!)
  PAW_PBE P 06Sep2000                   :
 energy of atom  2       EATOM= -176.0430
 kinetic energy error for atom=    0.0013 (will be added to EATOM!!)
  PAW_PBE S 06Sep2000                   :
 energy of atom  3       EATOM= -276.8230
 kinetic energy error for atom=    0.0020 (will be added to EATOM!!)
  PAW_PBE Cl 06Sep2000                  :
 energy of atom  4       EATOM= -409.7259
 kinetic energy error for atom=    0.0030 (will be added to EATOM!!)
 
 
 POSCAR: New POSCAR file                         
  positions in cartesian coordinates
  No initial velocities read in
 exchange correlation table for  LEXCH =        8
   RHO(1)=    0.500       N(1)  =     2000
   RHO(2)=  100.500       N(2)  =     4000
 


--------------------------------------------------------------------------------------------------------


 ion  position               nearest neighbor table
   1  0.720  0.810  0.191- 118 2.06
   2  0.567  0.677  0.004- 196 2.37 158 2.64
   3  0.655  0.633  0.189- 177 2.15 165 2.53 130 2.57 118 2.65
   4  0.834  0.940  0.015- 151 2.19 155 2.27 153 2.40 107 2.51
   5  0.576  0.777  0.290- 171 2.29 118 2.29 177 2.32 191 2.49
   6  0.902  0.766  0.909- 204 2.43 151 2.58 156 2.64
   7  0.240  0.048  0.047- 198 2.52 178 2.54
   8  0.213  0.847  0.285- 202 2.13 170 2.60
   9  0.112  0.995  0.365- 125 2.29
  10  0.224  0.742  0.051- 201 2.19 159 2.44 170 2.59 178 2.64
  11  0.103  0.692  0.899- 144 2.38 180 2.45
  12  0.333  0.845  0.429- 127 2.32 171 2.39 125 2.45
  13  0.348  0.479  0.606- 208 2.05 138 2.64
  14  0.517  0.798  0.530- 120 2.41 179 2.45 115 2.67
  15  0.722  0.852  0.771- 150 2.40 151 2.47 116 2.66
  16  0.342  0.643  0.443- 172 2.17 142 2.32
  17  0.705  0.534  0.765- 117 2.39 176 2.51 168 2.60 174 2.67
  18  0.159  0.711  0.620- 141 2.18 144 2.51 104 2.62
  19  0.972  0.911  0.875- 155 2.51 204 2.55
  20  0.924  0.467  0.970- 133 2.30 205 2.36 180 2.59
  21  0.163  0.468  0.685- 181 2.38 208 2.44 134 2.55 143 2.60
  22  0.513  0.901  0.862- 196 2.27 193 2.44
  23  0.003  0.616  0.748- 135 2.51
  24  0.841  0.586  0.846- 168 2.40 180 2.50 135 2.58
  25  0.359  0.483  0.879- 181 2.34 160 2.37 158 2.64 112 2.68
  26  0.084  0.513  0.875- 205 2.20 134 2.42 180 2.44  78 2.55 181 2.65
  27  0.239  0.611  0.823- 144 2.26 181 2.28 197 2.41 159 2.63
  28  0.428  0.701  0.921- 196 2.02 158 2.45 197 2.52
  29  0.062  0.316  0.688- 200 2.17 134 2.38 189 2.49
  30  0.532  0.643  0.734- 117 2.52 197 2.56  98 2.62 176 2.68 179 2.69
  31  0.273  0.269  0.044- 182 2.35 160 2.63 124 2.65
  32  0.351  0.171  0.148-  99 2.41 182 2.51 194 2.59
  33  0.469  0.074  0.013- 182 2.25 193 2.42 175 2.53
  34  0.432  0.323  0.048- 160 2.29 182 2.55 121 2.57
  35  0.625  0.382  0.199- 190 1.98 148 2.48 165 2.57
  36  0.070  0.162  0.125- 123 2.47 198 2.47 163 2.52
  37  0.797  0.114  0.479- 199 2.35 113 2.46 207 2.57
  38  0.825  0.308  0.671- 183 2.46 174 2.59 102 2.64
  39  0.630  1.000  0.943- 193 2.18 149 2.50 150 2.68
  40  0.581  0.308  0.694- 173 2.17 103 2.26
  41  0.862  0.174  0.809- 152 2.31 189 2.37 183 2.59
  42  0.766  0.318  0.860- 133 2.22 183 2.27 167 2.59
  43  0.469  0.210  0.352- 145 2.32 122 2.38 140 2.59 148 2.69
  44  0.256  0.006  0.738- 187 2.13
  45  0.323  0.092  0.337- 145 2.52 125 2.61
  46  0.983  0.163  0.625- 199 2.26 200 2.49
  47  0.419  0.995  0.502- 145 2.34 119 2.59 126 2.67
  48  0.943  0.315  0.414- 185 2.30 129 2.36
  49  0.385  0.416  0.398- 122 2.30 195 2.37 138 2.44
  50  0.994  0.214  0.263- 161 2.20 123 2.42 163 2.47
  51  0.181  0.274  0.310- 185 2.35 123 2.50 124 2.55 122 2.69
  52  0.973  0.392  0.212- 186 2.42 164 2.50 163 2.56 185 2.59
  53  0.132  0.481  0.322- 131 2.26 185 2.45 169 2.50
  54  0.285  0.488  0.199- 124 2.44 157 2.46 169 2.51 121 2.58 108 2.67
  55  0.788  0.606  0.305- 130 2.39 154 2.43 118 2.47
  56  0.101  0.572  0.081- 186 2.50 169 2.54
  57  0.812  0.478  0.130- 164 2.43 186 2.50 165 2.67 167 2.68
  58  0.082  0.707  0.293- 202 2.39 131 2.52 169 2.63
  59  0.955  0.665  0.049- 180 2.33 201 2.43 156 2.49
  60  0.111  0.403  0.464- 195 2.39 185 2.39 143 2.44
  61  0.440  0.007  0.756- 187 2.27 175 2.42 119 2.46
  62  0.334  0.941  0.922- 178 2.24 187 2.26
  63  0.393  0.886  0.641- 119 2.19 127 2.38 187 2.60 179 2.67
  64  0.092  0.842  0.734- 203 1.80 144 2.40 204 2.51
  65  0.208  0.847  0.854- 144 2.53 178 2.57 187 2.60 203 2.63
  66  0.315  0.750  0.744- 197 2.24 144 2.45 179 2.67
  67  0.041  0.829  0.454- 188 2.07 128 2.47 141 2.67
  68  0.877  0.902  0.489- 188 2.06 207 2.53 116 2.65
  69  0.872  0.795  0.254- 107 2.50 188 2.64
  70  0.890  0.736  0.538- 206 2.19 141 2.38 188 2.60
  71  0.781  0.770  0.417- 206 2.27 118 2.30 188 2.41
  72  0.749  0.099  0.705- 183 2.38 150 2.42 113 2.56 152 2.62
  73  0.995  0.338  0.866- 133 2.34 189 2.34 134 2.46 205 2.52
  74  0.375  0.180  0.862- 182 2.24 184 2.36 175 2.54
  75  0.139  0.167  0.843- 184 2.24 198 2.52 189 2.52
  76  0.291  0.337  0.776- 181 2.42 208 2.44 184 2.68
  77  0.095  0.869  0.055- 155 2.14 201 2.18 178 2.37
  78  0.212  0.457  0.948- 181 2.24 160 2.24 205 2.46 159 2.55  26 2.55
  79  0.588  0.426  0.392- 132 2.38 190 2.41 130 2.47
  80  0.508  0.577  0.133- 177 2.21 158 2.57 165 2.62
  81  0.711  0.229  0.315- 148 2.34 147 2.47 132 2.47 161 2.53 105 2.72
  82  0.530  0.596  0.294- 130 2.45 157 2.58 177 2.66 190 2.67 120 2.69
  83  0.424  0.710  0.237- 177 2.17 170 2.24 157 2.35 171 2.53 111 2.58
  84  0.772  0.417  0.356- 129 2.41 164 2.44 130 2.59 132 2.61
  85  0.834  0.049  0.272- 207 2.23 161 2.33 153 2.49
  86  0.501  0.868  0.126- 193 2.30 191 2.39
  87  0.638  0.670  0.405- 120 2.18 118 2.44
  88  0.697  0.936  0.331- 114 2.39 191 2.39 147 2.44
  89  0.462  0.023  0.247- 194 2.04 145 2.48 191 2.57 105 2.71
  90  0.539  0.936  0.382- 114 2.43 145 2.45 191 2.54 171 2.66
  91  0.389  0.224  0.700- 139 2.13 192 2.29 184 2.54
  92  0.821  0.554  0.569- 206 2.14 135 2.17 136 2.58
  93  0.583  0.101  0.718- 192 2.39 150 2.60
  94  0.200  0.189  0.652- 184 2.21 200 2.22
  95  0.592  0.101  0.479- 113 2.39 147 2.50 145 2.50
  96  0.626  0.195  0.860- 183 2.37 173 2.54 175 2.61
  97  0.698  0.924  0.574- 113 1.95 116 1.98 115 2.03 114 2.11
  98  0.627  0.690  0.613- 137 2.08 117 2.09  30 2.62
  99  0.347  0.295  0.231- 122 2.02 124 2.05 121 2.18  32 2.41
 100  0.208  0.958  0.530- 126 1.92 128 1.98 125 2.13 127 2.29
 101  0.934  0.558  0.384- 129 2.02 131 2.20 154 2.45
 102  0.901  0.440  0.730- 134 2.06 135 2.12 133 2.13  38 2.64
 103  0.530  0.322  0.566- 140 1.85 138 2.13 139 2.16  40 2.26
 104  0.099  0.604  0.515- 143 2.12 131 2.14 141 2.21  18 2.62
 105  0.608  0.107  0.259- 147 1.96 148 2.18 146 2.28  89 2.71  81 2.72
 106  0.791  0.007  0.851- 152 1.96 150 2.05 151 2.15 149 2.17
 107  0.903  0.842  0.113- 156 1.78 155 2.10 153 2.20  69 2.50   4 2.51
 108  0.337  0.526  0.049- 160 1.92 158 2.12 159 2.26  54 2.67
 109  0.843  0.263  0.190- 164 1.75 161 1.87 163 1.97 162 2.20
 110  0.673  0.468  0.988- 167 1.75 165 1.99 168 2.01 166 2.13
 111  0.271  0.663  0.249- 170 1.94 169 2.08 157 2.11 172 2.29  83 2.58
 112  0.508  0.415  0.847- 176 2.03 166 2.23 173 2.27  25 2.68
 113  0.695  0.045  0.568-  97 1.95  95 2.39  37 2.46  72 2.56
 114  0.655  0.881  0.460-  97 2.11  88 2.39  90 2.43
 115  0.607  0.875  0.645-  97 2.03 119 2.10  14 2.67
 116  0.797  0.874  0.628-  97 1.98  68 2.65  15 2.66
 117  0.686  0.677  0.727-  98 2.09  17 2.39  30 2.52
 118  0.715  0.741  0.297-   1 2.06   5 2.29  71 2.30  87 2.44  55 2.47   3 2.65
 119  0.507  0.959  0.629- 115 2.10  63 2.19  61 2.46  47 2.59
 120  0.506  0.694  0.425- 171 2.04  87 2.18  14 2.41  82 2.69
 121  0.418  0.399  0.184-  99 2.18 190 2.24  34 2.57  54 2.58
 122  0.342  0.287  0.354-  99 2.02  49 2.30  43 2.38  51 2.69
 123  0.124  0.137  0.264-  50 2.42  36 2.47  51 2.50
 124  0.240  0.344  0.183-  99 2.05  54 2.44  51 2.55  31 2.65
 125  0.246  0.968  0.406- 100 2.13   9 2.29  12 2.45  45 2.61
 126  0.279  0.044  0.575- 100 1.92  47 2.67
 127  0.279  0.838  0.560- 100 2.29  12 2.32  63 2.38
 128  0.085  0.955  0.529- 100 1.98  67 2.47
 129  0.893  0.451  0.435- 101 2.02  48 2.36  84 2.41
 130  0.664  0.524  0.304-  55 2.39  82 2.45  79 2.47   3 2.57  84 2.59 190 2.69
 131  0.068  0.586  0.390- 104 2.14 101 2.20  53 2.26  58 2.52
 132  0.676  0.315  0.435- 140 2.14  79 2.38  81 2.47  84 2.61
 133  0.869  0.411  0.853- 102 2.13  42 2.22  20 2.30  73 2.34
 134  0.026  0.440  0.759- 102 2.06  29 2.38  26 2.42  73 2.46  21 2.55
 135  0.868  0.562  0.693- 102 2.12  92 2.17  23 2.51  24 2.58
 136  0.675  0.489  0.549- 174 2.11 137 2.19  92 2.58
 137  0.576  0.575  0.582-  98 2.08 136 2.19
 138  0.476  0.432  0.516- 103 2.13  49 2.44  13 2.64
 139  0.426  0.237  0.576- 192 1.95  91 2.13 103 2.16 140 2.75
 140  0.558  0.266  0.472- 103 1.85 132 2.14  43 2.59 139 2.75
 141  0.033  0.712  0.569-  18 2.18 104 2.21  70 2.38  67 2.67
 142  0.349  0.647  0.584- 179 1.97  16 2.32
 143  0.055  0.493  0.570- 104 2.12  60 2.44  21 2.60
 144  0.168  0.720  0.772-  27 2.26  11 2.38  64 2.40  66 2.45  18 2.51  65 2.53
 145  0.469  0.070  0.390-  43 2.32  47 2.34  90 2.45  89 2.48  95 2.50  45 2.52
 146  0.695  0.105  0.149- 162 2.08 105 2.28
 147  0.679  0.084  0.354- 105 1.96  88 2.44  81 2.47  95 2.50
 148  0.587  0.239  0.240- 105 2.18  81 2.34  35 2.48  43 2.69
 149  0.748  0.101  0.936- 106 2.17  39 2.50
 150  0.682  0.995  0.787- 106 2.05  15 2.40  72 2.42  93 2.60  39 2.68
 151  0.793  0.884  0.900- 106 2.15   4 2.19  15 2.47   6 2.58
 152  0.881  0.036  0.775- 106 1.96  41 2.31  72 2.62
 153  0.826  0.944  0.161- 107 2.20   4 2.40  85 2.49
 154  0.920  0.580  0.237- 186 2.18  55 2.43 101 2.45
 155  0.972  0.911  0.028- 107 2.10  77 2.14   4 2.27  19 2.51
 156  0.840  0.769  0.058- 107 1.78  59 2.49   6 2.64
 157  0.369  0.583  0.283- 111 2.11  83 2.35  54 2.46  82 2.58
 158  0.446  0.567  0.988- 108 2.12  28 2.45  80 2.57   2 2.64  25 2.64
 159  0.245  0.608  0.983- 108 2.26  10 2.44  78 2.55  27 2.63
 160  0.333  0.416  0.005- 108 1.92  78 2.24  34 2.29  25 2.37  31 2.63
 161  0.859  0.192  0.278- 109 1.87  50 2.20  85 2.33  81 2.53
 162  0.742  0.218  0.110- 146 2.08 109 2.20
 163  0.948  0.261  0.127- 109 1.97  50 2.47  36 2.52  52 2.56
 164  0.820  0.363  0.225- 109 1.75  57 2.43  84 2.44  52 2.50
 165  0.650  0.504  0.101- 110 1.99   3 2.53  35 2.57  80 2.62  57 2.67
 166  0.595  0.371  0.943- 110 2.13 112 2.23
 167  0.764  0.408  0.990- 110 1.75  42 2.59  57 2.68
 168  0.714  0.563  0.920- 110 2.01  24 2.40  17 2.60
 169  0.169  0.590  0.220- 111 2.08  53 2.50  54 2.51  56 2.54  58 2.63
 170  0.304  0.759  0.186- 111 1.94  83 2.24  10 2.59   8 2.60
 171  0.456  0.793  0.364- 120 2.04   5 2.29  12 2.39  83 2.53  90 2.66
 172  0.243  0.707  0.379-  16 2.17 111 2.29
 173  0.508  0.282  0.802-  40 2.17 112 2.27  96 2.54
 174  0.706  0.416  0.651- 136 2.11  38 2.59  17 2.67
 175  0.504  0.088  0.863-  61 2.42  33 2.53  74 2.54  96 2.61
 176  0.558  0.480  0.753- 112 2.03  17 2.51  30 2.68
 177  0.542  0.704  0.172-   3 2.15  83 2.17  80 2.21   5 2.32  82 2.66
 178  0.229  0.898  0.001-  62 2.24  77 2.37   7 2.54  65 2.57  10 2.64
 179  0.432  0.725  0.630- 142 1.97  14 2.45  66 2.67  63 2.67  30 2.69
 180  0.975  0.610  0.919-  59 2.33  26 2.44  11 2.45  24 2.50  20 2.59
 181  0.230  0.470  0.814-  78 2.24  27 2.28  25 2.34  21 2.38  76 2.42  26 2.65
 182  0.380  0.181  0.998-  74 2.24  33 2.25  31 2.35  32 2.51  34 2.55
 183  0.722  0.235  0.757-  42 2.27  96 2.37  72 2.38  38 2.46  41 2.59
 184  0.259  0.174  0.773-  94 2.21  75 2.24  74 2.36  91 2.54  76 2.68
 185  0.059  0.349  0.338-  48 2.30  51 2.35  60 2.39  53 2.45  52 2.59
 186  0.964  0.516  0.128- 154 2.18  52 2.42  56 2.50  57 2.50
 187  0.337  0.915  0.787-  44 2.13  62 2.26  61 2.27  65 2.60  63 2.60
 188  0.923  0.819  0.405-  68 2.06  67 2.07  71 2.41  70 2.60  69 2.64
 189  0.001  0.217  0.788-  73 2.34  41 2.37  29 2.49  75 2.52
 190  0.531  0.435  0.257-  35 1.98 121 2.24  79 2.41  82 2.67 130 2.69
 191  0.585  0.921  0.235-  88 2.39  86 2.39   5 2.49  90 2.54  89 2.57
 192  0.473  0.137  0.626- 139 1.95  91 2.29  93 2.39
 193  0.529  0.936  0.006-  39 2.18  86 2.30  33 2.42  22 2.44
 194  0.370  0.011  0.162-  89 2.04  32 2.59
 195  0.247  0.456  0.435-  49 2.37  60 2.39
 196  0.533  0.765  0.893-  28 2.02  22 2.27   2 2.37
 197  0.382  0.637  0.788-  66 2.24  27 2.41  28 2.52  30 2.56
 198  0.148  0.164  0.996-  36 2.47   7 2.52  75 2.52
 199  0.877  0.214  0.549-  46 2.26  37 2.35
 200  0.102  0.250  0.579-  29 2.17  94 2.22  46 2.49
 201  0.089  0.734  0.067-  77 2.18  10 2.19  59 2.43
 202  0.081  0.854  0.275-   8 2.13  58 2.39
 203  0.106  0.945  0.774-  64 1.80  65 2.63
 204  0.947  0.796  0.771-   6 2.43  64 2.51  19 2.55
 205  0.065  0.425  0.975-  26 2.20  20 2.36  78 2.46  73 2.52
 206  0.778  0.664  0.509-  92 2.14  70 2.19  71 2.27
 207  0.894  0.023  0.392-  85 2.23  68 2.53  37 2.57
 208  0.275  0.379  0.634-  13 2.05  76 2.44  21 2.44
 

IMPORTANT INFORMATION: All symmetrisations will be switched off!
NOSYMM: (Re-)initialisation of all symmetry stuff for point group C_1.

 
 
 KPOINTS: Regular mesh centered at Gamma          

Automatic generation of k-mesh.
Space group operators:
 irot       det(A)        alpha          n_x          n_y          n_z        tau_x        tau_y        tau_z
    1     1.000000     0.000001     1.000000     0.000000     0.000000     0.000000     0.000000     0.000000
 
 Subroutine IBZKPT returns following result:
 ===========================================
 
 Found      1 irreducible k-points:
 
 Following reciprocal coordinates:
            Coordinates               Weight
  0.000000  0.000000  0.000000      1.000000
 
 Following cartesian coordinates:
            Coordinates               Weight
  0.000000  0.000000  0.000000      1.000000
 


--------------------------------------------------------------------------------------------------------




 Dimension of arrays:
   k-points           NKPTS =      1   k-points in BZ     NKDIM =      1   number of bands    NBANDS=    592
   number of dos      NEDOS =    301   number of ions     NIONS =    208
   non local maximal  LDIM  =      4   non local SUM 2l+1 LMDIM =      8
   total plane-waves  NPLWV = 729000
   max r-space proj   IRMAX =      1   max aug-charges    IRDMAX=   5618
   dimension x,y,z NGX =    90 NGY =   90 NGZ =   90
   dimension x,y,z NGXF=   180 NGYF=  180 NGZF=  180
   support grid    NGXF=   180 NGYF=  180 NGZF=  180
   ions per type =              96  16  80  16
   NGX,Y,Z   is equivalent  to a cutoff of   9.34,  9.29,  9.11 a.u.
   NGXF,Y,Z  is equivalent  to a cutoff of  18.67, 18.59, 18.22 a.u.

 SYSTEM =  LPSC                                    
 POSCAR =  New POSCAR file                         

 Startparameter for this run:
   NWRITE =      2    write-flag & timer
   PREC   = normal    normal or accurate (medium, high low for compatibility)
   ISTART =      0    job   : 0-new  1-cont  2-samecut
   ICHARG =      2    charge: 1-file 2-atom 10-const
   ISPIN  =      1    spin polarized calculation?
   LNONCOLLINEAR =      F non collinear calculations
   LSORBIT =      F    spin-orbit coupling
   INIWAV =      1    electr: 0-lowe 1-rand  2-diag
   LASPH  =      F    aspherical Exc in radial PAW
   METAGGA=      F    non-selfconsistent MetaGGA calc.

 Electronic Relaxation 1
   ENCUT  =  500.0 eV  36.75 Ry    6.06 a.u.  29.22 29.35 29.95*2*pi/ulx,y,z
   ENINI  =  500.0     initial cutoff
   ENAUG  =  628.9 eV  augmentation charge cutoff
   NELM   =    100;   NELMIN=  2; NELMDL=-12     # of ELM steps 
   EDIFF  = 0.1E-05   stopping-criterion for ELM
   LREAL  =      F    real-space projection
   NLSPLINE    = F    spline interpolate recip. space projectors
   LCOMPAT=      F    compatible to vasp.4.4
   GGA_COMPAT  = T    GGA compatible to vasp.4.4-vasp.4.6
   LMAXPAW     = -100 max onsite density
   LMAXMIX     =    2 max onsite mixed and CHGCAR
   VOSKOWN=      0    Vosko Wilk Nusair interpolation
   ROPT   =    0.00000   0.00000   0.00000   0.00000
 Ionic relaxation
   EDIFFG = -.1E-01   stopping-criterion for IOM
   NSW    =      1    number of steps for IOM
   NBLOCK =      1;   KBLOCK =      1    inner block; outer block 
   IBRION =      2    ionic relax: 0-MD 1-quasi-New 2-CG
   NFREE  =      1    steps in history (QN), initial steepest desc. (CG)
   ISIF   =      2    stress and relaxation
   IWAVPR =     11    prediction:  0-non 1-charg 2-wave 3-comb
   ISYM   =      0    0-nonsym 1-usesym 2-fastsym
   LCORR  =      T    Harris-Foulkes like correction to forces

   POTIM  = 0.5000    time-step for ionic-motion
   TEIN   =    0.0    initial temperature
   TEBEG  =    0.0;   TEEND  =   0.0 temperature during run
   SMASS  =  -3.00    Nose mass-parameter (am)
   estimated Nose-frequenzy (Omega)   =  0.10E-29 period in steps =****** mass=  -0.587E-26a.u.
   SCALEE = 1.0000    scale energy and forces
   NPACO  =    256;   APACO  = 16.0  distance and # of slots for P.C.
   PSTRESS=    0.0 pullay stress

  Mass of Ions in am
   POMASS =   7.01 30.97 32.07 35.45
  Ionic Valenz
   ZVAL   =   3.00  5.00  6.00  7.00
  Atomic Wigner-Seitz radii
   RWIGS  =  -1.00 -1.00 -1.00 -1.00
  virtual crystal weights 
   VCA    =   1.00  1.00  1.00  1.00
   NELECT =     960.0000    total number of electrons
   NUPDOWN=      -1.0000    fix difference up-down

 DOS related values:
   EMIN   =  10.00;   EMAX   =-10.00  energy-range for DOS
   EFERMI =   0.00
   ISMEAR =     0;   SIGMA  =   0.05  broadening in eV -4-tet -1-fermi 0-gaus

 Electronic relaxation 2 (details)
   IALGO  =     48    algorithm
   LDIAG  =      T    sub-space diagonalisation (order eigenvalues)
   LSUBROT=      F    optimize rotation matrix (better conditioning)
   TURBO    =      0    0=normal 1=particle mesh
   IRESTART =      0    0=no restart 2=restart with 2 vectors
   NREBOOT  =      0    no. of reboots
   NMIN     =      0    reboot dimension
   EREF     =   0.00    reference energy to select bands
   IMIX   =      4    mixing-type and parameters
     AMIX     =   0.40;   BMIX     =  1.00
     AMIX_MAG =   1.60;   BMIX_MAG =  1.00
     AMIN     =   0.10
     WC   =   100.;   INIMIX=   1;  MIXPRE=   1;  MAXMIX= -45

 Intra band minimization:
   WEIMIN = 0.0010     energy-eigenvalue tresh-hold
   EBREAK =  0.42E-09  absolut break condition
   DEPER  =   0.30     relativ break condition  

   TIME   =   0.40     timestep for ELM

  volume/ion in A,a.u.               =      20.38       137.50
  Fermi-wavevector in a.u.,A,eV,Ry     =   0.997951  1.885854 13.550121  0.995906
  Thomas-Fermi vector in A             =   2.130142
 
 Write flags
   LWAVE        =      F    write WAVECAR
   LDOWNSAMPLE  =      F    k-point downsampling of WAVECAR
   LCHARG       =      F    write CHGCAR
   LVTOT        =      F    write LOCPOT, total local potential
   LVHAR        =      F    write LOCPOT, Hartree potential only
   LELF         =      F    write electronic localiz. function (ELF)
   LORBIT       =     11    0 simple, 1 ext, 2 COOP (PROOUT), +10 PAW based schemes


 Dipole corrections
   LMONO  =      F    monopole corrections only (constant potential shift)
   LDIPOL =      F    correct potential (dipole corrections)
   IDIPOL =      0    1-x, 2-y, 3-z, 4-all directions 
   EPSILON=  1.0000000 bulk dielectric constant

 Exchange correlation treatment:
   GGA     =    --    GGA type
   LEXCH   =     8    internal setting for exchange type
   VOSKOWN=      0    Vosko Wilk Nusair interpolation
   LHFCALC =     F    Hartree Fock is set to
   LHFONE  =     F    Hartree Fock one center treatment
   AEXX    =    0.0000 exact exchange contribution

 Linear response parameters
   LEPSILON=     F    determine dielectric tensor
   LRPA    =     F    only Hartree local field effects (RPA)
   LNABLA  =     F    use nabla operator in PAW spheres
   LVEL    =     F    velocity operator in full k-point grid
   LINTERFAST=   F  fast interpolation
   KINTER  =     0    interpolate to denser k-point grid
   CSHIFT  =0.1000    complex shift for real part using Kramers Kronig
   OMEGAMAX=  -1.0    maximum frequency
   DEG_THRESHOLD= 0.2000000E-02 threshold for treating states as degnerate
   RTIME   =   -0.100 relaxation time in fs
  (WPLASMAI=    0.000 imaginary part of plasma frequency in eV, 0.658/RTIME)
   DFIELD  = 0.0000000 0.0000000 0.0000000 field for delta impulse in time
 
 Orbital magnetization related:
   ORBITALMAG=     F  switch on orbital magnetization
   LCHIMAG   =     F  perturbation theory with respect to B field
   DQ        =  0.001000  dq finite difference perturbation B field
   LLRAUG    =     F  two centre corrections for induced B field



--------------------------------------------------------------------------------------------------------


 conjugate gradient relaxation of ions
 charge density and potential will be updated during run
 non-spin polarized calculation
 RMM-DIIS sequential band-by-band
 perform sub-space diagonalisation
    before iterative eigenvector-optimisation
 modified Broyden-mixing scheme, WC =      100.0
 initial mixing is a Kerker type mixing with AMIX =  0.4000 and BMIX =      1.0000
 Hartree-type preconditioning will be used
 using additional bands          112
 reciprocal scheme for non local part
 use partial core corrections
 calculate Harris-corrections to forces 
   (improved forces if not selfconsistent)
 use gradient corrections 
 use of overlap-Matrix (Vanderbilt PP)
 Gauss-broadening in eV      SIGMA  =   0.05


--------------------------------------------------------------------------------------------------------


  energy-cutoff  :      500.00
  volume of cell :     4238.07
      direct lattice vectors                 reciprocal lattice vectors
    16.026082000  0.000000000  0.000000000     0.062398283  0.000000000  0.000000000
     0.000000000 16.100000000  0.000000000     0.000000000  0.062111801  0.000000000
     0.000000000  0.000000000 16.425367000     0.000000000  0.000000000  0.060881440

  length of vectors
    16.026082000 16.100000000 16.425367000     0.062398283  0.062111801  0.060881440


 
 k-points in units of 2pi/SCALE and weight: Regular mesh centered at Gamma          
   0.00000000  0.00000000  0.00000000       1.000
 
 k-points in reciprocal lattice and weights: Regular mesh centered at Gamma          
   0.00000000  0.00000000  0.00000000       1.000
 
 position of ions in fractional coordinates (direct lattice) 
   0.71991395  0.80962112  0.19106057
   0.56704814  0.67679503  0.00422253
   0.65478886  0.63318012  0.18937903
   0.83409033  0.94019876  0.01478749
   0.57624877  0.77670186  0.29010615
   0.90221053  0.76640994  0.90925213
   0.23958445  0.04827994  0.04703049
   0.21317500  0.84732298  0.28481373
   0.11208541  0.99537888  0.36463782
   0.22406724  0.74171429  0.05063589
   0.10339333  0.69167702  0.89937716
   0.33319810  0.84495031  0.42870336
   0.34800521  0.47920497  0.60577459
   0.51707960  0.79826087  0.52973976
   0.72202925  0.85219255  0.77078339
   0.34248296  0.64288199  0.44283211
   0.70485724  0.53436335  0.76461610
   0.15891907  0.71098758  0.61952345
   0.97176590  0.91093168  0.87509156
   0.92372546  0.46703540  0.97019446
   0.16308415  0.46779317  0.68491011
   0.51313665  0.90050932  0.86231863
   0.00281424  0.61639876  0.74819637
   0.84094166  0.58565963  0.84596588
   0.35897420  0.48312298  0.87926194
   0.08355816  0.51313168  0.87505503
   0.23883879  0.61050373  0.82333016
   0.42790247  0.70139130  0.92086831
   0.06201416  0.31607888  0.68778981
   0.53188546  0.64327329  0.73444934
   0.27303929  0.26901304  0.04377211
   0.35097225  0.17080124  0.14801922
   0.46899236  0.07379130  0.01303472
   0.43158646  0.32258509  0.04759023
   0.62523704  0.38218882  0.19869206
   0.07016749  0.16215776  0.12546691
   0.79741262  0.11410683  0.47928305
   0.82468067  0.30794783  0.67099262
   0.63031002  0.99971429  0.94288304
   0.58122565  0.30789627  0.69401798
   0.86191372  0.17364410  0.80880993
   0.76645059  0.31804720  0.85965811
   0.46854247  0.20969689  0.35231359
   0.25578242  0.00644820  0.73782217
   0.32258228  0.09175963  0.33679247
   0.98257952  0.16262112  0.62501495
   0.41891961  0.99493789  0.50183719
   0.94256350  0.31502919  0.41421297
   0.38474345  0.41574099  0.39808669
   0.99403585  0.21384099  0.26258165
   0.18115719  0.27367205  0.30983356
   0.97272059  0.39226025  0.21230515
   0.13199858  0.48122919  0.32242689
   0.28522505  0.48835901  0.19906222
   0.78821511  0.60631677  0.30541479
   0.10094233  0.57174224  0.08119149
   0.81232581  0.47847826  0.13020957
   0.08212363  0.70691925  0.29320197
   0.95494332  0.66500621  0.04883069
   0.11125489  0.40271677  0.46407365
   0.44028353  0.00681882  0.75599528
   0.33418461  0.94123602  0.92172065
   0.39278471  0.88573292  0.64077107
   0.09156636  0.84244720  0.73357265
   0.20764401  0.84709317  0.85444057
   0.31524673  0.74958385  0.74375812
   0.04149492  0.82889441  0.45442516
   0.87737602  0.90173913  0.48941129
   0.87154178  0.79488820  0.25446737
   0.89047342  0.73632919  0.53768053
   0.78127018  0.76957764  0.41709814
   0.74935970  0.09933851  0.70452003
   0.99482207  0.33838261  0.86640378
   0.37487890  0.17997267  0.86209337
   0.13926985  0.16701118  0.84300704
   0.29061564  0.33741677  0.77611051
   0.09518608  0.86881988  0.05521721
   0.21218349  0.45727764  0.94831367
   0.58842205  0.42590435  0.39198454
   0.50780596  0.57746025  0.13266188
   0.71081004  0.22915528  0.31455066
   0.52959669  0.59595901  0.29427409
   0.42405624  0.71001242  0.23688725
   0.77195412  0.41700807  0.35562676
   0.83438984  0.04889329  0.27172056
   0.50139579  0.86818012  0.12614391
   0.63831572  0.66989441  0.40465884
   0.69672051  0.93552174  0.33110919
   0.46221778  0.02269696  0.24659479
   0.53870497  0.93560248  0.38220577
   0.38886610  0.22384969  0.69950340
   0.82121756  0.55393292  0.56889262
   0.58264709  0.10133789  0.71814529
   0.20020427  0.18903665  0.65249075
   0.59152512  0.10141056  0.47858961
   0.62629157  0.19487453  0.85962767
   0.69846766  0.92432298  0.57421731
   0.62721506  0.68982609  0.61349010
   0.34695504  0.29455714  0.23099271
   0.20839092  0.95807453  0.53049895
   0.93419589  0.55820311  0.38429035
   0.90133696  0.44007888  0.73046770
   0.53035421  0.32199752  0.56636908
   0.09881891  0.60382733  0.51512030
   0.60819045  0.10687764  0.25927640
   0.79109167  0.00731398  0.85109818
   0.90274092  0.84188199  0.11256857
   0.33662064  0.52609193  0.04919969
   0.84345631  0.26305093  0.18966212
   0.67302164  0.46802733  0.98760655
   0.27085659  0.66326087  0.24937221
   0.50809299  0.41536708  0.84666601
   0.69491720  0.04534379  0.56786311
   0.65544404  0.88107453  0.46047495
   0.60651131  0.87521118  0.64465531
   0.79716302  0.87432298  0.62776680
   0.68552626  0.67654037  0.72687569
   0.71450402  0.74096273  0.29650905
   0.50711397  0.95895652  0.62928274
   0.50593589  0.69432298  0.42485626
   0.41833369  0.39913168  0.18401415
   0.34206988  0.28685031  0.35376622
   0.12356607  0.13682795  0.26400384
   0.23976977  0.34443540  0.18312407
   0.24590290  0.96795652  0.40633613
   0.27865888  0.04367739  0.57498076
   0.27890660  0.83824845  0.55975736
   0.08465201  0.95494410  0.52911451
   0.89293191  0.45145714  0.43543380
   0.66400509  0.52448571  0.30354999
   0.06829055  0.58628385  0.38956877
   0.67572973  0.31453913  0.43488587
   0.86900217  0.41084720  0.85285766
   0.02633282  0.43992547  0.75885671
   0.86782284  0.56176646  0.69286123
   0.67529294  0.48855714  0.54947326
   0.57608029  0.57548199  0.58234437
   0.47593230  0.43157019  0.51620338
   0.42630507  0.23686584  0.57564619
   0.55769589  0.26557019  0.47174045
   0.03325080  0.71168944  0.56871484
   0.34893120  0.64740994  0.58366002
   0.05455613  0.49268199  0.56972182
   0.16828942  0.72018634  0.77176358
   0.46855682  0.07049379  0.38983604
   0.69453657  0.10465466  0.14899454
   0.67936131  0.08440248  0.35409863
   0.58718157  0.23923789  0.23996541
   0.74801190  0.10095776  0.93639917
   0.68176988  0.99482609  0.78748925
   0.79270155  0.88375776  0.90045477
   0.88118855  0.03575503  0.77520338
   0.82608463  0.94373292  0.16062472
   0.92007516  0.57998261  0.23723610
   0.97202797  0.91129814  0.02766891
   0.84020536  0.76927950  0.05805021
   0.36928427  0.58327702  0.28283995
   0.44601107  0.56671304  0.98849542
   0.24460314  0.60819255  0.98333876
   0.33262528  0.41566273  0.00483941
   0.85943027  0.19152050  0.27813990
   0.74210278  0.21813851  0.11049981
   0.94838526  0.26130683  0.12684587
   0.81985104  0.36272360  0.22495997
   0.65036482  0.50417143  0.10118678
   0.59499508  0.37103230  0.94298045
   0.76441017  0.40813665  0.99022445
   0.71397363  0.56337578  0.92000380
   0.16861326  0.59010994  0.21993238
   0.30440129  0.75913665  0.18604394
   0.45634547  0.79314286  0.36377087
   0.24293274  0.70749689  0.37895105
   0.50775916  0.28206025  0.80219821
   0.70637976  0.41566273  0.65146185
   0.50364150  0.08823540  0.86329273
   0.55837915  0.48029441  0.75315212
   0.54240269  0.70413043  0.17236266
   0.22941415  0.89767702  0.00123187
   0.43179799  0.72466460  0.62994026
   0.97532884  0.61040497  0.91881052
   0.23027150  0.46957578  0.81386309
   0.38031566  0.18107702  0.99835212
   0.72234748  0.23463540  0.75675630
   0.25934536  0.17388261  0.77334041
   0.05870399  0.34851615  0.33845332
   0.96381636  0.51584720  0.12843366
   0.33729641  0.91499379  0.78665518
   0.92287685  0.81859006  0.40517755
   0.00133036  0.21702174  0.78772060
   0.53086712  0.43480559  0.25661953
   0.58529839  0.92086957  0.23515091
   0.47345820  0.13720559  0.62569683
   0.52916240  0.93644099  0.00590635
   0.37015410  0.01143435  0.16172059
   0.24723697  0.45571739  0.43501250
   0.53325573  0.76454037  0.89282632
   0.38234049  0.63667081  0.78845727
   0.14804242  0.16408447  0.99598992
   0.87727618  0.21401988  0.54906536
   0.10150329  0.25022981  0.57897458
   0.08854067  0.73437888  0.06691601
   0.08111090  0.85406211  0.27501364
   0.10554108  0.94525466  0.77408316
   0.94716226  0.79614907  0.77106344
   0.06484430  0.42454348  0.97517456
   0.77813779  0.66410559  0.50906260
   0.89375557  0.02250199  0.39175807
   0.27492496  0.37866149  0.63393409
 
 position of ions in cartesian coordinates  (Angst):
  11.53740000 13.03490000  3.13824000
   9.08756000 10.89640000  0.06935660
  10.49370000 10.19420000  3.11062000
  13.36720000 15.13720000  0.24289000
   9.23501000 12.50490000  4.76510000
  14.45890000 12.33920000 14.93480000
   3.83960000  0.77730700  0.77249300
   3.41636000 13.64190000  4.67817000
   1.79629000 16.02560000  5.98931000
   3.59092000 11.94160000  0.83171300
   1.65699000 11.13600000 14.77260000
   5.33986000 13.60370000  7.04161000
   5.57716000  7.71520000  9.95007000
   8.28676000 12.85200000  8.70117000
  11.57130000 13.72030000 12.66040000
   5.48866000 10.35040000  7.27368000
  11.29610000  8.60325000 12.55910000
   2.54685000 11.44690000 10.17590000
  15.57360000 14.66600000 14.37370000
  14.80370000  7.51927000 15.93580000
   2.61360000  7.53147000 11.24990000
   8.22357000 14.49820000 14.16390000
   0.04510120  9.92402000 12.28940000
  13.47700000  9.42912000 13.89530000
   5.75295000  7.77828000 14.44220000
   1.33911000  8.26142000 14.37310000
   3.82765000  9.82911000 13.52350000
   6.85760000 11.29240000 15.12560000
   0.99384400  5.08887000 11.29720000
   8.52404000 10.35670000 12.06360000
   4.37575000  4.33111000  0.71897300
   5.62471000  2.74990000  2.43127000
   7.51611000  1.18804000  0.21410000
   6.91664000  5.19362000  0.78168700
  10.02010000  6.15324000  3.26359000
   1.12451000  2.61074000  2.06084000
  12.77940000  1.83712000  7.87240000
  13.21640000  4.95796000 11.02130000
  10.10140000 16.09540000 15.48720000
   9.31477000  4.95713000 11.39950000
  13.81310000  2.79567000 13.28500000
  12.28320000  5.12056000 14.12020000
   7.50890000  3.37612000  5.78688000
   4.09919000  0.10381600 12.11900000
   5.16973000  1.47733000  5.53194000
  15.74690000  2.61820000 10.26610000
   6.71364000 16.01850000  8.24286000
  15.10560000  5.07197000  6.80360000
   6.16593000  6.69343000  6.53872000
  15.93050000  3.44284000  4.31300000
   2.90324000  4.40612000  5.08913000
  15.58890000  6.31539000  3.48719000
   2.11542000  7.74779000  5.29598000
   4.57104000  7.86258000  3.26967000
  12.63200000  9.76170000  5.01655000
   1.61771000  9.20505000  1.33360000
  13.01840000  7.70350000  2.13874000
   1.31612000 11.38140000  4.81595000
  15.30400000 10.70660000  0.80206200
   1.78298000  6.48374000  7.62258000
   7.05602000  0.10978300 12.41750000
   5.35567000 15.15390000 15.13960000
   6.29480000 14.26030000 10.52490000
   1.46745000 13.56340000 12.04920000
   3.32772000 13.63820000 14.03450000
   5.05217000 12.06830000 12.21650000
   0.66500100 13.34520000  7.46410000
  14.06090000 14.51800000  8.03876000
  13.96740000 12.79770000  4.17972000
  14.27080000 11.85490000  8.83160000
  12.52070000 12.39020000  6.85099000
  12.00930000  1.59935000 11.57200000
  15.94310000  5.44796000 14.23100000
   6.00784000  2.89756000 14.16020000
   2.23195000  2.68888000 13.84670000
   4.65743000  5.43241000 12.74790000
   1.52546000 13.98800000  0.90696300
   3.40047000  7.36217000 15.57640000
   9.43010000  6.85706000  6.43849000
   8.13814000  9.29711000  2.17902000
  11.39150000  3.68940000  5.16661000
   8.48736000  9.59494000  4.83356000
   6.79596000 11.43120000  3.89096000
  12.37140000  6.71383000  5.84130000
  13.37200000  0.78718200  4.46311000
   8.03541000 13.97770000  2.07196000
  10.22970000 10.78530000  6.64667000
  11.16570000 15.06190000  5.43859000
   7.40754000  0.36542100  4.05041000
   8.63333000 15.06320000  6.27787000
   6.23200000  3.60398000 11.48960000
  13.16090000  8.91832000  9.34427000
   9.33755000  1.63154000 11.79580000
   3.20849000  3.04349000 10.71740000
   9.47983000  1.63271000  7.86101000
  10.03700000  3.13748000 14.11970000
  11.19370000 14.88160000  9.43173000
  10.05180000 11.10620000 10.07680000
   5.56033000  4.74237000  3.79414000
   3.33969000 15.42500000  8.71364000
  14.97150000  8.98707000  6.31211000
  14.44490000  7.08527000 11.99820000
   8.49950000  5.18416000  9.30282000
   1.58368000  9.72162000  8.46104000
   9.74691000  1.72073000  4.25871000
  12.67810000  0.11775500 13.97960000
  14.46740000 13.55430000  1.84898000
   5.39471000  8.47008000  0.80812300
  13.51730000  4.23512000  3.11527000
  10.78590000  7.53524000 16.22180000
   4.34077000 10.67850000  4.09603000
   8.14274000  6.68741000 13.90680000
  11.13680000  0.73003500  9.32736000
  10.50420000 14.18530000  7.56347000
   9.72000000 14.09090000 10.58870000
  12.77540000 14.07660000 10.31130000
  10.98630000 10.89230000 11.93920000
  11.45070000 11.92950000  4.87027000
   8.12705000 15.43920000 10.33620000
   8.10817000 11.17860000  6.97842000
   6.70425000  6.42602000  3.02250000
   5.48204000  4.61829000  5.81074000
   1.98028000  2.20293000  4.33636000
   3.84257000  5.54541000  3.00788000
   3.94086000 15.58410000  6.67422000
   4.46581000  0.70320600  9.44427000
   4.46978000 13.49580000  9.19422000
   1.35664000 15.37460000  8.69090000
  14.31020000  7.26846000  7.15216000
  10.64140000  8.44422000  4.98592000
   1.09443000  9.43917000  6.39881000
  10.82930000  5.06408000  7.14316000
  13.92670000  6.61464000 14.00850000
   0.42201200  7.08280000 12.46450000
  13.90780000  9.04444000 11.38050000
  10.82230000  7.86577000  9.02530000
   9.23231000  9.26526000  9.56522000
   7.62733000  6.94828000  8.47883000
   6.83200000  3.81354000  9.45520000
   8.93768000  4.27568000  7.74851000
   0.53288000 11.45820000  9.34135000
   5.59200000 10.42330000  9.58683000
   0.87432100  7.93218000  9.35789000
   2.69702000 11.59500000 12.67650000
   7.50913000  1.13495000  6.40320000
  11.13070000  1.68494000  2.44729000
  10.88750000  1.35888000  5.81620000
   9.41022000  3.85173000  3.94152000
  11.98770000  1.62542000 15.38070000
  10.92610000 16.01670000 12.93480000
  12.70390000 14.22850000 14.79030000
  14.12200000  0.57565600 12.73300000
  13.23890000 15.19410000  2.63832000
  14.74520000  9.33772000  3.89669000
  15.57780000 14.67190000  0.45447200
  13.46520000 12.38540000  0.95349600
   5.91818000  9.39076000  4.64575000
   7.14781000  9.12408000 16.23640000
   3.92003000  9.79190000 16.15170000
   5.33068000  6.69217000  0.07948910
  13.77330000  3.08348000  4.56855000
  11.89300000  3.51203000  1.81500000
  15.19890000  4.20704000  2.08349000
  13.13900000  5.83985000  3.69505000
  10.42280000  8.11716000  1.66203000
   9.53544000  5.97362000 15.48880000
  12.25050000  6.57100000 16.26480000
  11.44220000  9.07035000 15.11140000
   2.70221000  9.50077000  3.61247000
   4.87836000 12.22210000  3.05584000
   7.31343000 12.76960000  5.97507000
   3.89326000 11.39070000  6.22441000
   8.13739000  4.54117000 13.17640000
  11.32050000  6.69217000 10.70050000
   8.07140000  1.42059000 14.17990000
   8.94863000  7.73274000 12.37080000
   8.69259000 11.33650000  2.83112000
   3.67661000 14.45260000  0.02023390
   6.92003000 11.66710000 10.34700000
  15.63070000  9.82752000 15.09180000
   3.69035000  7.56017000 13.36800000
   6.09497000  2.91534000 16.39830000
  11.57640000  3.77763000 12.43000000
   4.15629000  2.79951000 12.70240000
   0.94079500  5.61111000  5.55922000
  15.44620000  8.30514000  2.10957000
   5.40554000 14.73140000 12.92110000
  14.79010000 13.17930000  6.65519000
   0.02132040  3.49405000 12.93860000
   8.50772000  7.00037000  4.21507000
   9.38004000 14.82600000  3.86244000
   7.58768000  2.20901000 10.27730000
   8.48040000 15.07670000  0.09701390
   5.93212000  0.18409300  2.65632000
   3.96224000  7.33705000  7.14524000
   8.54600000 12.30910000 14.66500000
   6.12742000 10.25040000 12.95070000
   2.37254000  2.64176000 16.35950000
  14.05930000  3.44572000  9.01860000
   1.62670000  4.02870000  9.50987000
   1.41896000 11.82350000  1.09912000
   1.29989000 13.75040000  4.51720000
   1.69141000 15.21860000 12.71460000
  15.17930000 12.81800000 12.66500000
   1.03920000  6.83515000 16.01760000
  12.47050000 10.69210000  8.36154000
  14.32340000  0.36228200  6.43477000
   4.40597000  6.09645000 10.41260000
 


--------------------------------------------------------------------------------------------------------


 k-point  1 :   0.0000 0.0000 0.0000  plane waves:  107615

 maximum and minimum number of plane-waves per node :     13456    13445

 maximum number of plane-waves:    107615
 maximum index in each direction: 
   IXMAX=   29   IYMAX=   29   IZMAX=   29
   IXMIN=  -29   IYMIN=  -29   IZMIN=  -29


 parallel 3D FFT for wavefunctions:
    minimum data exchange during FFTs selected (reduces bandwidth)
 parallel 3D FFT for charge:
    minimum data exchange during FFTs selected (reduces bandwidth)


 total amount of memory used by VASP MPI-rank0   111673. kBytes
=======================================================================

   base      :      30000. kBytes
   nonl-proj :      48226. kBytes
   fftplans  :       6264. kBytes
   grid      :      10964. kBytes
   one-center:         79. kBytes
   wavefun   :      16140. kBytes
 
     INWAV:  cpu time    0.0000: real time    0.0000
 Broyden mixing: mesh for mixing (old mesh)
   NGX = 59   NGY = 59   NGZ = 59
  (NGX  =180   NGY  =180   NGZ  =180)
  gives a total of 205379 points

 initial charge density was supplied:
 charge density of overlapping atoms calculated
 number of electron     960.0000000 magnetization 
 keeping initial charge density in first step


--------------------------------------------------------------------------------------------------------


 Maximum index for augmentation-charges          363 (set IRDMAX)


--------------------------------------------------------------------------------------------------------


 First call to EWALD:  gamma=   0.110
 Maximum number of real-space cells 3x 3x 3
 Maximum number of reciprocal cells 3x 3x 3

    FEWALD:  cpu time    0.0081: real time    0.0082


--------------------------------------- Iteration      1(   1)  ---------------------------------------


    POTLOK:  cpu time    0.0851: real time    0.0862
    SETDIJ:  cpu time    0.0076: real time    0.0078
    EDDIAG:  cpu time    0.9646: real time    0.9686
  RMM-DIIS:  cpu time    5.3038: real time    5.3069
    ORTHCH:  cpu time    0.2597: real time    0.2600
       DOS:  cpu time    0.0008: real time    0.0008
    --------------------------------------------
      LOOP:  cpu time    6.6217: real time    6.6303

 eigenvalue-minimisations  :   592
 total energy-change (2. order) :-0.3797493E+04  (-0.4700091E+05)
 number of electron     960.0000000 magnetization 
 augmentation part      960.0000000 magnetization 

 Free energy of the ion-electron system (eV)
  ---------------------------------------------------
  alpha Z        PSCENC =       804.77846877
  Ewald energy   TEWEN  =    -29684.94057248
  -Hartree energ DENC   =    -12536.58205649
  -exchange      EXHF   =         0.00000000
  -V(xc)+E(xc)   XCENC  =      2536.44107071
  PAW double counting   =     32496.41603574   -33591.34861692
  entropy T*S    EENTRO =        -0.05018049
  eigenvalues    EBANDS =    -14806.19206594
  atomic energy  EATOM  =     50983.98519967
  Solvation  Ediel_sol  =         0.00000000
  ---------------------------------------------------
  free energy    TOTEN  =     -3797.49271743 eV

  energy without entropy =    -3797.44253694  energy(sigma->0) =    -3797.46762719


--------------------------------------------------------------------------------------------------------




--------------------------------------- Iteration      1(   2)  ---------------------------------------


    EDDIAG:  cpu time    0.9514: real time    0.9544
  RMM-DIIS:  cpu time    5.3189: real time    5.3276
    ORTHCH:  cpu time    0.2603: real time    0.2603
       DOS:  cpu time    0.0007: real time    0.0007
    --------------------------------------------
      LOOP:  cpu time    6.5312: real time    6.5429

 eigenvalue-minimisations  :   592
 total energy-change (2. order) : 0.6194042E+04  (-0.7359490E+04)
 number of electron     960.0000000 magnetization 
 augmentation part      960.0000000 magnetization 

 Free energy of the ion-electron system (eV)
  ---------------------------------------------------
  alpha Z        PSCENC =       804.77846877
  Ewald energy   TEWEN  =    -29684.94057248
  -Hartree energ DENC   =    -12536.58205649
  -exchange      EXHF   =         0.00000000
  -V(xc)+E(xc)   XCENC  =      2536.44107071
  PAW double counting   =     32496.41603574   -33591.34861692
  entropy T*S    EENTRO =        -0.15704437
  eigenvalues    EBANDS =     -8612.04273288
  atomic energy  EATOM  =     50983.98519967
  Solvation  Ediel_sol  =         0.00000000
  ---------------------------------------------------
  free energy    TOTEN  =      2396.54975174 eV

  energy without entropy =     2396.70679611  energy(sigma->0) =     2396.62827393


--------------------------------------------------------------------------------------------------------




--------------------------------------- Iteration      1(   3)  ---------------------------------------


    EDDIAG:  cpu time    0.9663: real time    0.9670
  RMM-DIIS:  cpu time    5.3287: real time    5.3312
    ORTHCH:  cpu time    0.2612: real time    0.2613
       DOS:  cpu time    0.0006: real time    0.0006
    --------------------------------------------
      LOOP:  cpu time    6.5568: real time    6.5602

 eigenvalue-minimisations  :   592
 total energy-change (2. order) :-0.1600580E+04  (-0.2343658E+04)
 number of electron     960.0000000 magnetization 
 augmentation part      960.0000000 magnetization 

 Free energy of the ion-electron system (eV)
  ---------------------------------------------------
  alpha Z        PSCENC =       804.77846877
  Ewald energy   TEWEN  =    -29684.94057248
  -Hartree energ DENC   =    -12536.58205649
  -exchange      EXHF   =         0.00000000
  -V(xc)+E(xc)   XCENC  =      2536.44107071
  PAW double counting   =     32496.41603574   -33591.34861692
  entropy T*S    EENTRO =        -0.03715057
  eigenvalues    EBANDS =    -10212.74228800
  atomic energy  EATOM  =     50983.98519967
  Solvation  Ediel_sol  =         0.00000000
  ---------------------------------------------------
  free energy    TOTEN  =       795.97009042 eV

  energy without entropy =      796.00724099  energy(sigma->0) =      795.98866571


--------------------------------------------------------------------------------------------------------




--------------------------------------- Iteration      1(   4)  ---------------------------------------


    EDDIAG:  cpu time    0.9461: real time    0.9527
  RMM-DIIS:  cpu time    5.4075: real time    5.4105
    ORTHCH:  cpu time    0.2599: real time    0.2601
       DOS:  cpu time    0.0007: real time    0.0007
    --------------------------------------------
      LOOP:  cpu time    6.6142: real time    6.6240

 eigenvalue-minimisations  :   592
 total energy-change (2. order) :-0.8300691E+03  (-0.8346075E+03)
 number of electron     960.0000000 magnetization 
 augmentation part      960.0000000 magnetization 

 Free energy of the ion-electron system (eV)
  ---------------------------------------------------
  alpha Z        PSCENC =       804.77846877
  Ewald energy   TEWEN  =    -29684.94057248
  -Hartree energ DENC   =    -12536.58205649
  -exchange      EXHF   =         0.00000000
  -V(xc)+E(xc)   XCENC  =      2536.44107071
  PAW double counting   =     32496.41603574   -33591.34861692
  entropy T*S    EENTRO =        -0.00366598
  eigenvalues    EBANDS =    -11042.84485586
  atomic energy  EATOM  =     50983.98519967
  Solvation  Ediel_sol  =         0.00000000
  ---------------------------------------------------
  free energy    TOTEN  =       -34.09899285 eV

  energy without entropy =      -34.09532687  energy(sigma->0) =      -34.09715986


--------------------------------------------------------------------------------------------------------




--------------------------------------- Iteration      1(   5)  ---------------------------------------


    EDDIAG:  cpu time    0.9618: real time    0.9656
  RMM-DIIS:  cpu time    5.3714: real time    5.3743
    ORTHCH:  cpu time    0.2618: real time    0.2618
       DOS:  cpu time    0.0004: real time    0.0004
    --------------------------------------------
      LOOP:  cpu time    6.5953: real time    6.6020

 eigenvalue-minimisations  :   592
 total energy-change (2. order) :-0.3635338E+03  (-0.3328859E+03)
 number of electron     960.0000000 magnetization 
 augmentation part      960.0000000 magnetization 

 Free energy of the ion-electron system (eV)
  ---------------------------------------------------
  alpha Z        PSCENC =       804.77846877
  Ewald energy   TEWEN  =    -29684.94057248
  -Hartree energ DENC   =    -12536.58205649
  -exchange      EXHF   =         0.00000000
  -V(xc)+E(xc)   XCENC  =      2536.44107071
  PAW double counting   =     32496.41603574   -33591.34861692
  entropy T*S    EENTRO =        -0.00000000
  eigenvalues    EBANDS =    -11406.38229248
  atomic energy  EATOM  =     50983.98519967
  Solvation  Ediel_sol  =         0.00000000
  ---------------------------------------------------
  free energy    TOTEN  =      -397.63276349 eV

  energy without entropy =     -397.63276349  energy(sigma->0) =     -397.63276349


--------------------------------------------------------------------------------------------------------




--------------------------------------- Iteration      1(   6)  ---------------------------------------


    EDDIAG:  cpu time    0.9764: real time    0.9807
  RMM-DIIS:  cpu time    5.3770: real time    5.3791
    ORTHCH:  cpu time    0.2618: real time    0.2620
       DOS:  cpu time    0.0004: real time    0.0004
    --------------------------------------------
      LOOP:  cpu time    6.6156: real time    6.6222

 eigenvalue-minimisations  :   592
 total energy-change (2. order) :-0.1521844E+03  (-0.1401879E+03)
 number of electron     960.0000000 magnetization 
 augmentation part      960.0000000 magnetization 

 Free energy of the ion-electron system (eV)
  ---------------------------------------------------
  alpha Z        PSCENC =       804.77846877
  Ewald energy   TEWEN  =    -29684.94057248
  -Hartree energ DENC   =    -12536.58205649
  -exchange      EXHF   =         0.00000000
  -V(xc)+E(xc)   XCENC  =      2536.44107071
  PAW double counting   =     32496.41603574   -33591.34861692
  entropy T*S    EENTRO =        -0.00000000
  eigenvalues    EBANDS =    -11558.56664631
  atomic energy  EATOM  =     50983.98519967
  Solvation  Ediel_sol  =         0.00000000
  ---------------------------------------------------
  free energy    TOTEN  =      -549.81711732 eV

  energy without entropy =     -549.81711732  energy(sigma->0) =     -549.81711732


--------------------------------------------------------------------------------------------------------




--------------------------------------- Iteration      1(   7)  ---------------------------------------


    EDDIAG:  cpu time    0.9685: real time    0.9689
  RMM-DIIS:  cpu time    5.4116: real time    5.4142
    ORTHCH:  cpu time    0.2626: real time    0.2634
       DOS:  cpu time    0.0003: real time    0.0003
    --------------------------------------------
      LOOP:  cpu time    6.6430: real time    6.6468

 eigenvalue-minimisations  :   592
 total energy-change (2. order) :-0.7236107E+02  (-0.6936979E+02)
 number of electron     960.0000000 magnetization 
 augmentation part      960.0000000 magnetization 

 Free energy of the ion-electron system (eV)
  ---------------------------------------------------
  alpha Z        PSCENC =       804.77846877
  Ewald energy   TEWEN  =    -29684.94057248
  -Hartree energ DENC   =    -12536.58205649
  -exchange      EXHF   =         0.00000000
  -V(xc)+E(xc)   XCENC  =      2536.44107071
  PAW double counting   =     32496.41603574   -33591.34861692
  entropy T*S    EENTRO =        -0.00000000
  eigenvalues    EBANDS =    -11630.92771773
  atomic energy  EATOM  =     50983.98519967
  Solvation  Ediel_sol  =         0.00000000
  ---------------------------------------------------
  free energy    TOTEN  =      -622.17818873 eV

  energy without entropy =     -622.17818873  energy(sigma->0) =     -622.17818873


--------------------------------------------------------------------------------------------------------




--------------------------------------- Iteration      1(   8)  ---------------------------------------


    EDDIAG:  cpu time    0.9356: real time    0.9384
  RMM-DIIS:  cpu time    5.3844: real time    5.3871
    ORTHCH:  cpu time    0.2658: real time    0.2665
       DOS:  cpu time    0.0004: real time    0.0004
    --------------------------------------------
      LOOP:  cpu time    6.5861: real time    6.5924

 eigenvalue-minimisations  :   592
 total energy-change (2. order) :-0.4213611E+02  (-0.3971770E+02)
 number of electron     960.0000000 magnetization 
 augmentation part      960.0000000 magnetization 

 Free energy of the ion-electron system (eV)
  ---------------------------------------------------
  alpha Z        PSCENC =       804.77846877
  Ewald energy   TEWEN  =    -29684.94057248
  -Hartree energ DENC   =    -12536.58205649
  -exchange      EXHF   =         0.00000000
  -V(xc)+E(xc)   XCENC  =      2536.44107071
  PAW double counting   =     32496.41603574   -33591.34861692
  entropy T*S    EENTRO =        -0.00000000
  eigenvalues    EBANDS =    -11673.06383053
  atomic energy  EATOM  =     50983.98519967
  Solvation  Ediel_sol  =         0.00000000
  ---------------------------------------------------
  free energy    TOTEN  =      -664.31430153 eV

  energy without entropy =     -664.31430153  energy(sigma->0) =     -664.31430153


--------------------------------------------------------------------------------------------------------




--------------------------------------- Iteration      1(   9)  ---------------------------------------


    EDDIAG:  cpu time    0.9574: real time    0.9598
  RMM-DIIS:  cpu time   19.1794: real time   19.1917
    ORTHCH:  cpu time    0.2568: real time    0.2574
       DOS:  cpu time    0.0004: real time    0.0004
    --------------------------------------------
      LOOP:  cpu time   20.3939: real time   20.4093

 eigenvalue-minimisations  :  2144
 total energy-change (2. order) :-0.1101745E+03  (-0.1094062E+03)
 number of electron     960.0000000 magnetization 
 augmentation part      960.0000000 magnetization 

 Free energy of the ion-electron system (eV)
  ---------------------------------------------------
  alpha Z        PSCENC =       804.77846877
  Ewald energy   TEWEN  =    -29684.94057248
  -Hartree energ DENC   =    -12536.58205649
  -exchange      EXHF   =         0.00000000
  -V(xc)+E(xc)   XCENC  =      2536.44107071
  PAW double counting   =     32496.41603574   -33591.34861692
  entropy T*S    EENTRO =        -0.00000000
  eigenvalues    EBANDS =    -11783.23831240
  atomic energy  EATOM  =     50983.98519967
  Solvation  Ediel_sol  =         0.00000000
  ---------------------------------------------------
  free energy    TOTEN  =      -774.48878341 eV

  energy without entropy =     -774.48878341  energy(sigma->0) =     -774.48878341


--------------------------------------------------------------------------------------------------------




--------------------------------------- Iteration      1(  10)  ---------------------------------------


    EDDIAG:  cpu time    0.9957: real time    0.9986
  RMM-DIIS:  cpu time   19.2664: real time   19.2771
    ORTHCH:  cpu time    0.2573: real time    0.2579
       DOS:  cpu time    0.0003: real time    0.0003
    --------------------------------------------
      LOOP:  cpu time   20.5197: real time   20.5338

 eigenvalue-minimisations  :  2134
 total energy-change (2. order) :-0.5612194E+02  (-0.5526932E+02)
 number of electron     960.0000000 magnetization 
 augmentation part      960.0000000 magnetization 

 Free energy of the ion-electron system (eV)
  ---------------------------------------------------
  alpha Z        PSCENC =       804.77846877
  Ewald energy   TEWEN  =    -29684.94057248
  -Hartree energ DENC   =    -12536.58205649
  -exchange      EXHF   =         0.00000000
  -V(xc)+E(xc)   XCENC  =      2536.44107071
  PAW double counting   =     32496.41603574   -33591.34861692
  entropy T*S    EENTRO =        -0.00000000
  eigenvalues    EBANDS =    -11839.36025652
  atomic energy  EATOM  =     50983.98519967
  Solvation  Ediel_sol  =         0.00000000
  ---------------------------------------------------
  free energy    TOTEN  =      -830.61072752 eV

  energy without entropy =     -830.61072752  energy(sigma->0) =     -830.61072752


--------------------------------------------------------------------------------------------------------




--------------------------------------- Iteration      1(  11)  ---------------------------------------


    EDDIAG:  cpu time    0.9372: real time    0.9401
  RMM-DIIS:  cpu time   18.5654: real time   18.5739
    ORTHCH:  cpu time    0.2852: real time    0.2852
       DOS:  cpu time    0.0003: real time    0.0003
    --------------------------------------------
      LOOP:  cpu time   19.7881: real time   19.7996

 eigenvalue-minimisations  :  2061
 total energy-change (2. order) :-0.1243506E+02  (-0.1265599E+02)
 number of electron     960.0000000 magnetization 
 augmentation part      960.0000000 magnetization 

 Free energy of the ion-electron system (eV)
  ---------------------------------------------------
  alpha Z        PSCENC =       804.77846877
  Ewald energy   TEWEN  =    -29684.94057248
  -Hartree energ DENC   =    -12536.58205649
  -exchange      EXHF   =         0.00000000
  -V(xc)+E(xc)   XCENC  =      2536.44107071
  PAW double counting   =     32496.41603574   -33591.34861692
  entropy T*S    EENTRO =        -0.00000000
  eigenvalues    EBANDS =    -11851.79531656
  atomic energy  EATOM  =     50983.98519967
  Solvation  Ediel_sol  =         0.00000000
  ---------------------------------------------------
  free energy    TOTEN  =      -843.04578756 eV

  energy without entropy =     -843.04578756  energy(sigma->0) =     -843.04578756


--------------------------------------------------------------------------------------------------------




--------------------------------------- Iteration      1(  12)  ---------------------------------------


    EDDIAG:  cpu time    1.0048: real time    1.0061
  RMM-DIIS:  cpu time   18.5191: real time   18.5256
    ORTHCH:  cpu time    0.2578: real time    0.2579
       DOS:  cpu time    0.0005: real time    0.0005
    CHARGE:  cpu time    0.2065: real time    0.2075
    MIXING:  cpu time    0.0023: real time    0.0028
    --------------------------------------------
      LOOP:  cpu time   19.9909: real time   20.0004

 eigenvalue-minimisations  :  2038
 total energy-change (2. order) :-0.6988994E+01  (-0.6978917E+01)
 number of electron     959.9999844 magnetization 
 augmentation part        6.6416643 magnetization 

 Broyden mixing:
  rms(total) = 0.74113E+01    rms(broyden)= 0.74087E+01
  rms(prec ) = 0.77088E+01
  weight for this iteration     100.00

 Free energy of the ion-electron system (eV)
  ---------------------------------------------------
  alpha Z        PSCENC =       804.77846877
  Ewald energy   TEWEN  =    -29684.94057248
  -Hartree energ DENC   =    -12536.58205649
  -exchange      EXHF   =         0.00000000
  -V(xc)+E(xc)   XCENC  =      2536.44107071
  PAW double counting   =     32496.41603574   -33591.34861692
  entropy T*S    EENTRO =        -0.00000000
  eigenvalues    EBANDS =    -11858.78431098
  atomic energy  EATOM  =     50983.98519967
  Solvation  Ediel_sol  =         0.00000000
  ---------------------------------------------------
  free energy    TOTEN  =      -850.03478198 eV

  energy without entropy =     -850.03478198  energy(sigma->0) =     -850.03478198


--------------------------------------------------------------------------------------------------------




--------------------------------------- Iteration      1(  13)  ---------------------------------------


    POTLOK:  cpu time    0.0814: real time    0.0816
    SETDIJ:  cpu time    0.0070: real time    0.0070
    EDDIAG:  cpu time    0.9705: real time    0.9713
  RMM-DIIS:  cpu time   14.4671: real time   14.4722
    ORTHCH:  cpu time    0.2572: real time    0.2572
       DOS:  cpu time    0.0004: real time    0.0004
    CHARGE:  cpu time    0.1908: real time    0.1908
    MIXING:  cpu time    0.0024: real time    0.0025
    --------------------------------------------
      LOOP:  cpu time   15.9767: real time   15.9830

 eigenvalue-minimisations  :  1588
 total energy-change (2. order) : 0.3695100E+02  (-0.9121678E+01)
 number of electron     959.9999847 magnetization 
 augmentation part        7.2781967 magnetization 

 Broyden mixing:
  rms(total) = 0.48644E+01    rms(broyden)= 0.48643E+01
  rms(prec ) = 0.49677E+01
  weight for this iteration     100.00

 eigenvalues of (default mixing * dielectric matrix)
  average eigenvalue GAMMA=   2.2582
  2.2582

 Free energy of the ion-electron system (eV)
  ---------------------------------------------------
  alpha Z        PSCENC =       804.77846877
  Ewald energy   TEWEN  =    -29684.94057248
  -Hartree energ DENC   =    -12841.24870467
  -exchange      EXHF   =         0.00000000
  -V(xc)+E(xc)   XCENC  =      2559.06630355
  PAW double counting   =     45979.09477402   -47096.08277919
  entropy T*S    EENTRO =        -0.00000000
  eigenvalues    EBANDS =    -11517.73647370
  atomic energy  EATOM  =     50983.98519967
  Solvation  Ediel_sol  =         0.00000000
  ---------------------------------------------------
  free energy    TOTEN  =      -813.08378403 eV

  energy without entropy =     -813.08378403  energy(sigma->0) =     -813.08378403


--------------------------------------------------------------------------------------------------------




--------------------------------------- Iteration      1(  14)  ---------------------------------------


    POTLOK:  cpu time    0.0813: real time    0.0816
    SETDIJ:  cpu time    0.0070: real time    0.0070
    EDDIAG:  cpu time    0.9662: real time    0.9667
  RMM-DIIS:  cpu time   15.0621: real time   15.0679
    ORTHCH:  cpu time    0.2579: real time    0.2580
       DOS:  cpu time    0.0007: real time    0.0007
    CHARGE:  cpu time    0.1971: real time    0.1973
    MIXING:  cpu time    0.0023: real time    0.0023
    --------------------------------------------
      LOOP:  cpu time   16.5746: real time   16.5815

 eigenvalue-minimisations  :  1662
 total energy-change (2. order) : 0.2822960E+01  (-0.7733214E+01)
 number of electron     959.9999854 magnetization 
 augmentation part        6.8255253 magnetization 

 Broyden mixing:
  rms(total) = 0.16206E+01    rms(broyden)= 0.16205E+01
  rms(prec ) = 0.18543E+01
  weight for this iteration     100.00

 eigenvalues of (default mixing * dielectric matrix)
  average eigenvalue GAMMA=   1.8222
  1.2548  2.3897

 Free energy of the ion-electron system (eV)
  ---------------------------------------------------
  alpha Z        PSCENC =       804.77846877
  Ewald energy   TEWEN  =    -29684.94057248
  -Hartree energ DENC   =    -13136.39191481
  -exchange      EXHF   =         0.00000000
  -V(xc)+E(xc)   XCENC  =      2582.23264925
  PAW double counting   =     73574.48884036   -74717.88183846
  entropy T*S    EENTRO =        -0.01207668
  eigenvalues    EBANDS =    -11216.51957982
  atomic energy  EATOM  =     50983.98519967
  Solvation  Ediel_sol  =         0.00000000
  ---------------------------------------------------
  free energy    TOTEN  =      -810.26082420 eV

  energy without entropy =     -810.24874753  energy(sigma->0) =     -810.25478586


--------------------------------------------------------------------------------------------------------




--------------------------------------- Iteration      1(  15)  ---------------------------------------


    POTLOK:  cpu time    0.0806: real time    0.0808
    SETDIJ:  cpu time    0.0069: real time    0.0069
    EDDIAG:  cpu time    0.9635: real time    0.9639
  RMM-DIIS:  cpu time   16.9794: real time   16.9859
    ORTHCH:  cpu time    0.2664: real time    0.2663
       DOS:  cpu time    0.0005: real time    0.0005
    CHARGE:  cpu time    0.1965: real time    0.1967
    MIXING:  cpu time    0.0023: real time    0.0023
    --------------------------------------------
      LOOP:  cpu time   18.4961: real time   18.5033

 eigenvalue-minimisations  :  1845
 total energy-change (2. order) :-0.2074840E+01  (-0.2526474E+01)
 number of electron     959.9999852 magnetization 
 augmentation part        5.6078450 magnetization 

 Broyden mixing:
  rms(total) = 0.74385E+00    rms(broyden)= 0.74350E+00
  rms(prec ) = 0.88627E+00
  weight for this iteration     100.00

 eigenvalues of (default mixing * dielectric matrix)
  average eigenvalue GAMMA=   1.4645
  2.4132  1.3689  0.6112

 Free energy of the ion-electron system (eV)
  ---------------------------------------------------
  alpha Z        PSCENC =       804.77846877
  Ewald energy   TEWEN  =    -29684.94057248
  -Hartree energ DENC   =    -13134.68551239
  -exchange      EXHF   =         0.00000000
[...]
      9.74691      1.72073      4.25871        -1.766951      1.380180     -3.166277
     12.67810      0.11775     13.97960        -2.218880      0.366993      0.939625
     14.46740     13.55430      1.84898         5.459573      5.647527      5.727318
      5.39471      8.47008      0.80812         0.045796      3.874571      1.102398
     13.51730      4.23512      3.11527         1.044532     -7.287821     -5.938276
     10.78590      7.53524     16.22180        -5.372509      3.806311     -0.961723
      4.34077     10.67850      4.09603        -0.393190     -1.528801      4.191312
      8.14274      6.68741     13.90680        -0.828696     -1.137516     -0.622429
     11.13680      0.73004      9.32736         0.278991      2.157255      0.536756
     10.50420     14.18530      7.56347         0.678327     -0.486552      0.257339
      9.72000     14.09090     10.58870        -1.636378     -0.306975      1.230241
     12.77540     14.07660     10.31130         0.692126     -0.267794     -0.446404
     10.98630     10.89230     11.93920        -0.503866      0.663337     -0.497085
     11.45070     11.92950      4.87027         1.152319     -1.161174      0.946667
      8.12705     15.43920     10.33620         0.887061      0.350064     -0.254311
      8.10817     11.17860      6.97842        -0.392650     -1.182104      0.534662
      6.70425      6.42602      3.02250         0.884738     -0.285306      0.964843
      5.48204      4.61829      5.81074        -0.064463     -0.402842      0.607277
      1.98028      2.20293      4.33636         0.229634     -0.299448     -0.229576
      3.84257      5.54541      3.00788        -0.939070     -0.017091     -0.177208
      3.94086     15.58410      6.67422         0.415904     -0.482495     -0.749538
      4.46581      0.70321      9.44427         0.755701      1.927365      1.981226
      4.46978     13.49580      9.19422        -1.389281      0.983730      0.069609
      1.35664     15.37460      8.69090        -0.430382      0.196427      0.366251
     14.31020      7.26846      7.15216        -0.047752      0.359191      0.170713
     10.64140      8.44422      4.98592         0.621196      0.125251      0.521296
      1.09443      9.43917      6.39881        -1.213991      0.314535     -0.096034
     10.82930      5.06408      7.14316         0.279826     -0.327624      0.207123
     13.92670      6.61464     14.00850        -0.793604      0.896506     -0.919181
      0.42201      7.08280     12.46450         1.694354      0.698755     -0.155273
     13.90780      9.04444     11.38050         0.342023      0.291566      1.906259
     10.82230      7.86577      9.02530         0.583301     -0.299060      1.077655
      9.23231      9.26526      9.56522         0.167352     -0.239054     -0.365901
      7.62733      6.94828      8.47883        -0.290042     -0.322093      0.422445
      6.83200      3.81354      9.45520        -1.106259      1.562764     -1.986998
      8.93768      4.27568      7.74851         2.517275     -3.565280     -5.754063
      0.53288     11.45820      9.34135        -0.268757     -0.813026     -0.618171
      5.59200     10.42330      9.58683        -1.060291     -1.199939     -0.274803
      0.87432      7.93218      9.35789         0.488764      1.113109     -0.235509
      2.69702     11.59500     12.67650        -0.259118      0.277675      0.114748
      7.50913      1.13495      6.40320        -0.697826     -0.523699      0.042671
     11.13070      1.68494      2.44729         0.677083     -0.256457      0.034115
     10.88750      1.35888      5.81620         1.956977     -0.234477      2.028292
      9.41022      3.85173      3.94152        -0.750127     -0.416394      0.961358
     11.98770      1.62542     15.38070         1.471988     -1.325198     -0.237942
     10.92610     16.01670     12.93480        -0.805080     -0.492835     -0.470872
     12.70390     14.22850     14.79030        -0.041495      0.524513     -0.450301
     14.12200      0.57566     12.73300         1.057064     -0.144946     -0.188887
     13.23890     15.19410      2.63832        -0.501086     -1.024843     -0.047564
     14.74520      9.33772      3.89669         0.253808     -0.146063      0.269174
     15.57780     14.67190      0.45447         0.205687      0.807654     -1.030084
     13.46520     12.38540      0.95350        -5.716102     -6.499758     -4.607548
      5.91818      9.39076      4.64575        -0.306609      0.102996     -0.658827
      7.14781      9.12408     16.23640         0.753775      0.512326      0.404463
      3.92003      9.79190     16.15170        -0.294998     -0.496870      0.357869
      5.33068      6.69217      0.07949        -0.599404     -3.392380     -1.739412
     13.77330      3.08348      4.56855        -0.556814     -2.892793      4.052952
     11.89300      3.51203      1.81500        -0.406002     -0.122340      0.336132
     15.19890      4.20704      2.08349         1.435058      0.500321     -1.395943
     13.13900      5.83985      3.69505        -2.792541     10.048062      3.215596
     10.42280      8.11716      1.66203        -0.772629      0.788731      1.462035
      9.53544      5.97362     15.48880        -0.575424      0.358419     -0.412126
     12.25050      6.57100     16.26480         8.412157     -6.703793      1.842298
     11.44220      9.07035     15.11140        -1.431802      2.132266     -0.977668
      2.70221      9.50077      3.61247         0.184515      0.281302     -0.640105
      4.87836     12.22210      3.05584        -0.469445      1.407064     -1.601087
      7.31343     12.76960      5.97507        -0.534520      1.330825     -0.153838
      3.89326     11.39070      6.22441        -1.112129      0.643000     -2.226220
      8.13739      4.54117     13.17640        -1.360481      0.775143      1.082848
     11.32050      6.69217     10.70050        -0.264705      0.160981     -0.860576
      8.07140      1.42059     14.17990         0.349388     -0.862033     -0.764945
      8.94863      7.73274     12.37080        -0.047406      0.399002      0.310642
      8.69259     11.33650      2.83112        -0.202313      0.373843     -1.113968
      3.67661     14.45260      0.02023        -0.116539     -0.326172     -0.069498
      6.92003     11.66710     10.34700         1.532815      1.365184      0.245601
     15.63070      9.82752     15.09180        -0.194452      0.592370     -0.505860
      3.69035      7.56017     13.36800        -0.360879     -0.335781     -0.130081
      6.09497      2.91534     16.39830        -0.652413      0.923931      1.922965
     11.57640      3.77763     12.43000         0.307345     -0.390005     -0.521141
      4.15629      2.79951     12.70240         0.993399      0.389238     -0.150845
      0.94079      5.61111      5.55922        -0.353738      0.425833     -0.349948
     15.44620      8.30514      2.10957        -0.137390      0.476674      0.387383
      5.40554     14.73140     12.92110         0.957827     -1.543595      0.166909
     14.79010     13.17930      6.65519        -1.450205     -1.786126     -0.974462
      0.02132      3.49405     12.93860         0.148830     -0.062276     -0.661657
      8.50772      7.00037      4.21507        -3.091900      1.724588      0.588458
      9.38004     14.82600      3.86244        -0.001400     -0.273199      0.236432
      7.58768      2.20901     10.27730         0.914120     -1.948880      0.281199
      8.48040     15.07670      0.09701        -0.464848     -0.354962      0.355805
      5.93212      0.18409      2.65632        -1.048756      0.410150     -0.666700
      3.96224      7.33705      7.14524        -0.104307      0.419627     -0.209743
      8.54600     12.30910     14.66500         1.191893      0.254548     -0.206173
      6.12742     10.25040     12.95070         0.167358     -0.274442      1.073142
      2.37254      2.64176     16.35950         0.087872     -0.071370      0.410480
     14.05930      3.44572      9.01860        -0.204152      0.150276     -0.098696
      1.62670      4.02870      9.50987        -0.212378     -0.235047     -0.541239
      1.41896     11.82350      1.09912        -0.548802     -0.956345      0.093198
      1.29989     13.75040      4.51720        -0.169578     -0.064905     -0.051704
      1.69141     15.21860     12.71460         0.778760      4.121096      1.908027
     15.17930     12.81800     12.66500         0.116333     -0.033738      0.456286
      1.03920      6.83515     16.01760         0.313532     -0.521472      0.694177
     12.47050     10.69210      8.36154        -0.436806      0.368989     -0.473469
     14.32340      0.36228      6.43477        -0.298079      0.299951      0.870211
      4.40597      6.09645     10.41260        -0.641288     -0.966412      0.448114
 -----------------------------------------------------------------------------------
    total drift:                               -0.021602     -0.002796     -0.019615


--------------------------------------------------------------------------------------------------------



  FREE ENERGIE OF THE ION-ELECTRON SYSTEM (eV)
  ---------------------------------------------------
  free  energy   TOTEN  =      -810.97503906 eV

  energy  without entropy=     -810.97295180  energy(sigma->0) =     -810.97399543
 


--------------------------------------------------------------------------------------------------------


    POTLOK:  cpu time    0.0923: real time    0.0923


--------------------------------------------------------------------------------------------------------




--------------------------------------------------------------------------------------------------------


     LOOP+:  cpu time  921.8266: real time  922.8835
    4ORBIT:  cpu time    0.0000: real time    0.0000
 


 total charge     
 
# of ion       s       p       d       tot
------------------------------------------
    1        2.024   0.060   0.000   2.083
    2        2.005   0.031   0.000   2.036
    3        2.025   0.063   0.000   2.088
    4        2.027   0.067   0.000   2.094
    5        2.028   0.073   0.000   2.101
    6        2.010   0.038   0.000   2.048
    7        2.005   0.028   0.000   2.033
    8        2.016   0.047   0.000   2.063
    9        2.008   0.036   0.000   2.044
   10        2.018   0.051   0.000   2.069
   11        2.016   0.043   0.000   2.059
   12        2.022   0.058   0.000   2.080
   13        2.018   0.048   0.000   2.066
   14        2.013   0.046   0.000   2.058
   15        2.010   0.040   0.000   2.050
   16        2.023   0.057   0.000   2.079
   17        2.014   0.046   0.000   2.060
   18        2.018   0.051   0.000   2.069
   19        2.006   0.032   0.000   2.038
   20        2.016   0.049   0.000   2.064
   21        2.015   0.046   0.000   2.061
   22        2.010   0.037   0.000   2.047
   23        2.004   0.028   0.000   2.031
   24        2.014   0.044   0.000   2.058
   25        2.019   0.054   0.000   2.073
   26        2.023   0.060   0.000   2.083
   27        2.027   0.065   0.000   2.091
   28        2.023   0.060   0.000   2.084
   29        2.023   0.056   0.000   2.079
   30        2.009   0.039   0.000   2.048
   31        2.016   0.045   0.000   2.061
   32        2.019   0.048   0.000   2.067
   33        2.017   0.047   0.000   2.064
   34        2.014   0.044   0.000   2.058
   35        2.030   0.073   0.000   2.103
   36        2.013   0.039   0.000   2.051
   37        2.009   0.036   0.000   2.045
   38        2.011   0.038   0.000   2.049
   39        2.016   0.047   0.000   2.063
   40        2.028   0.066   0.000   2.095
   41        2.021   0.055   0.000   2.075
   42        2.025   0.059   0.000   2.084
   43        2.020   0.053   0.000   2.072
   44        2.020   0.052   0.000   2.072
   45        2.005   0.029   0.000   2.034
   46        2.009   0.035   0.000   2.043
   47        2.015   0.042   0.000   2.057
   48        2.014   0.044   0.000   2.058
   49        2.016   0.047   0.000   2.063
   50        2.024   0.063   0.000   2.087
   51        2.016   0.048   0.000   2.064
   52        2.015   0.046   0.000   2.061
   53        2.019   0.053   0.000   2.071
   54        2.018   0.052   0.000   2.069
   55        2.019   0.051   0.000   2.070
   56        2.007   0.034   0.000   2.042
   57        2.010   0.041   0.000   2.051
   58        2.008   0.035   0.000   2.043
   59        2.017   0.049   0.000   2.066
   60        2.017   0.046   0.000   2.063
   61        2.025   0.061   0.000   2.086
   62        2.025   0.057   0.000   2.082
   63        2.026   0.064   0.000   2.090
   64        2.045   0.102   0.000   2.147
   65        2.014   0.043   0.000   2.058
   66        2.015   0.047   0.000   2.062
   67        2.026   0.062   0.000   2.088
   68        2.028   0.064   0.000   2.092
   69        2.008   0.036   0.000   2.044
   70        2.020   0.052   0.000   2.071
   71        2.024   0.062   0.000   2.086
   72        2.019   0.053   0.000   2.073
   73        2.020   0.056   0.000   2.076
   74        2.022   0.057   0.000   2.079
   75        2.017   0.045   0.000   2.062
   76        2.012   0.039   0.000   2.052
   77        2.030   0.069   0.000   2.098
   78        2.028   0.070   0.000   2.098
   79        2.017   0.050   0.000   2.067
   80        2.021   0.054   0.000   2.076
   81        2.020   0.057   0.000   2.077
   82        2.016   0.050   0.000   2.066
   83        2.034   0.082   0.000   2.117
   84        2.015   0.045   0.000   2.060
   85        2.017   0.049   0.000   2.066
   86        2.011   0.038   0.000   2.050
   87        2.021   0.055   0.000   2.077
   88        2.017   0.051   0.000   2.067
   89        2.027   0.066   0.000   2.093
   90        2.019   0.053   0.000   2.072
   91        2.025   0.068   0.000   2.092
   92        2.024   0.060   0.000   2.085
   93        2.011   0.040   0.000   2.051
   94        2.023   0.052   0.000   2.075
   95        2.014   0.045   0.000   2.058
   96        2.014   0.044   0.000   2.057
   97        0.978   1.434   0.000   2.412
   98        1.123   1.273   0.000   2.396
   99        1.042   1.390   0.000   2.432
  100        0.980   1.381   0.000   2.361
  101        1.106   1.261   0.000   2.367
  102        1.064   1.344   0.000   2.408
  103        1.083   1.441   0.000   2.525
  104        1.088   1.277   0.000   2.365
  105        1.111   1.286   0.000   2.397
  106        0.978   1.368   0.000   2.346
  107        1.052   1.489   0.000   2.541
  108        1.074   1.349   0.000   2.423
  109        0.992   1.586   0.000   2.578
  110        0.989   1.526   0.000   2.515
  111        0.978   1.363   0.000   2.341
  112        1.084   1.292   0.000   2.376
  113        1.331   2.498   0.000   3.829
  114        1.335   2.420   0.000   3.756
  115        1.365   2.350   0.000   3.715
  116        1.352   2.398   0.000   3.750
  117        1.345   2.376   0.000   3.722
  118        1.312   2.515   0.000   3.827
  119        1.348   2.370   0.000   3.719
  120        1.339   2.406   0.000   3.745
  121        1.365   2.311   0.000   3.677
  122        1.343   2.449   0.000   3.791
  123        1.316   2.374   0.000   3.690
  124        1.343   2.422   0.000   3.765
  125        1.331   2.450   0.000   3.781
  126        1.348   2.448   0.000   3.796
  127        1.350   2.347   0.000   3.697
  128        1.344   2.416   0.000   3.760
  129        1.342   2.409   0.000   3.751
  130        1.323   2.412   0.000   3.734
  131        1.358   2.371   0.000   3.729
  132        1.337   2.376   0.000   3.712
  133        1.342   2.456   0.000   3.798
  134        1.333   2.470   0.000   3.803
  135        1.336   2.436   0.000   3.772
  136        1.373   2.235   0.000   3.608
  137        1.383   2.274   0.000   3.657
  138        1.340   2.398   0.000   3.738
  139        1.364   2.366   0.000   3.730
  140        1.361   2.421   0.000   3.782
  141        1.338   2.407   0.000   3.744
  142        1.335   2.387   0.000   3.722
  143        1.350   2.370   0.000   3.720
  144        1.307   2.474   0.000   3.781
  145        1.310   2.464   0.000   3.774
  146        1.376   2.258   0.000   3.633
  147        1.331   2.499   0.000   3.830
  148        1.340   2.391   0.000   3.732
  149        1.353   2.341   0.000   3.693
  150        1.341   2.461   0.000   3.802
  151        1.347   2.419   0.000   3.766
  152        1.352   2.432   0.000   3.784
  153        1.342   2.381   0.000   3.724
  154        1.364   2.262   0.000   3.626
  155        1.331   2.479   0.000   3.811
  156        1.345   2.580   0.000   3.924
  157        1.344   2.412   0.000   3.755
  158        1.335   2.424   0.000   3.758
  159        1.332   2.396   0.000   3.728
  160        1.332   2.556   0.000   3.889
  161        1.342   2.565   0.000   3.908
  162        1.368   2.285   0.000   3.653
  163        1.337   2.473   0.000   3.809
  164        1.341   2.651   0.000   3.992
  165        1.341   2.456   0.000   3.796
  166        1.368   2.325   0.000   3.693
  167        1.352   2.615   0.000   3.967
  168        1.333   2.451   0.000   3.783
  169        1.337   2.429   0.000   3.766
  170        1.348   2.462   0.000   3.811
  171        1.334   2.412   0.000   3.746
  172        1.349   2.360   0.000   3.710
  173        1.346   2.378   0.000   3.724
  174        1.362   2.302   0.000   3.664
  175        1.321   2.402   0.000   3.724
  176        1.352   2.392   0.000   3.744
  177        1.312   2.513   0.000   3.825
  178        1.308   2.434   0.000   3.742
  179        1.340   2.363   0.000   3.703
  180        1.309   2.449   0.000   3.758
  181        1.310   2.499   0.000   3.809
  182        1.316   2.453   0.000   3.769
  183        1.311   2.457   0.000   3.768
  184        1.307   2.475   0.000   3.782
  185        1.308   2.461   0.000   3.769
  186        1.345   2.348   0.000   3.693
  187        1.309   2.491   0.000   3.800
  188        1.319   2.493   0.000   3.812
  189        1.311   2.424   0.000   3.735
  190        1.379   2.324   0.000   3.703
  191        1.318   2.424   0.000   3.742
  192        1.348   2.413   0.000   3.760
  193        1.591   3.607   0.000   5.198
  194        1.593   3.572   0.000   5.165
  195        1.591   3.560   0.000   5.151
  196        1.590   3.619   0.000   5.210
  197        1.594   3.587   0.000   5.181
  198        1.588   3.556   0.000   5.144
  199        1.588   3.576   0.000   5.163
  200        1.590   3.594   0.000   5.185
  201        1.593   3.608   0.000   5.200
  202        1.593   3.572   0.000   5.165
  203        1.597   3.631   0.000   5.228
  204        1.593   3.547   0.000   5.140
  205        1.591   3.587   0.000   5.178
  206        1.596   3.605   0.000   5.201
  207        1.593   3.559   0.000   5.151
  208        1.594   3.597   0.000   5.191
--------------------------------------------------
tot        343.065 277.847   0.000 620.912
 

 total amount of memory used by VASP MPI-rank0   111673. kBytes
=======================================================================

   base      :      30000. kBytes
   nonl-proj :      48226. kBytes
   fftplans  :       6264. kBytes
   grid      :      10964. kBytes
   one-center:         79. kBytes
   wavefun   :      16140. kBytes
 
  
  
 General timing and accounting informations for this job:
 ========================================================
  
                  Total CPU time used (sec):      931.220
                            User time (sec):      927.648
                          System time (sec):        3.572
                         Elapsed time (sec):      932.845
  
                   Maximum memory used (kb):      321280.
                   Average memory used (kb):           0.
  
                          Minor page faults:       461524
                          Major page faults:            0
                 Voluntary context switches:        12905
