LPSC                                    
           1
    16.026082    0.000000    0.000000
     0.000000   16.100000    0.000000
     0.000000    0.000000   16.425367
   Li   P    S    Cl
  96  16  80  16
Direct configuration=     1
   0.71991395  0.80962112  0.19106057
   0.56704814  0.67679503  0.00422253
   0.65478886  0.63318012  0.18937903
   0.83409033  0.94019876  0.01478749
   0.57624877  0.77670186  0.29010615
   0.90221053  0.76640994  0.90925213
   0.23958445  0.04827994  0.04703049
   0.21317500  0.84732298  0.28481373
   0.11208541  0.99537888  0.36463782
   0.22406724  0.74171429  0.05063589
   0.10339333  0.69167702  0.89937716
   0.33319810  0.84495031  0.42870336
   0.34800521  0.47920497  0.60577459
   0.51707960  0.79826087  0.52973976
   0.72202925  0.85219255  0.77078339
   0.34248296  0.64288199  0.44283211
   0.70485724  0.53436335  0.76461610
   0.15891907  0.71098758  0.61952345
   0.97176590  0.91093168  0.87509156
   0.92372546  0.46703540  0.97019446
   0.16308415  0.46779317  0.68491011
   0.51313665  0.90050932  0.86231863
   0.00281424  0.61639876  0.74819637
   0.84094166  0.58565963  0.84596588
   0.35897420  0.48312298  0.87926194
   0.08355816  0.51313168  0.87505503
   0.23883879  0.61050373  0.82333016
   0.42790247  0.70139130  0.92086831
   0.06201416  0.31607888  0.68778981
   0.53188546  0.64327329  0.73444934
   0.27303929  0.26901304  0.04377211
   0.35097225  0.17080124  0.14801922
   0.46899236  0.07379130  0.01303472
   0.43158646  0.32258509  0.04759023
   0.62523704  0.38218882  0.19869206
   0.07016749  0.16215776  0.12546691
   0.79741262  0.11410683  0.47928305
   0.82468067  0.30794783  0.67099262
   0.63031002  0.99971429  0.94288304
   0.58122565  0.30789627  0.69401798
   0.86191372  0.17364410  0.80880993
   0.76645059  0.31804720  0.85965811
   0.46854247  0.20969689  0.35231359
   0.25578242  0.00644820  0.73782217
   0.32258228  0.09175963  0.33679247
   0.98257952  0.16262112  0.62501495
   0.41891961  0.99493789  0.50183719
   0.94256350  0.31502919  0.41421297
   0.38474345  0.41574099  0.39808669
   0.99403585  0.21384099  0.26258165
   0.18115719  0.27367205  0.30983356
   0.97272059  0.39226025  0.21230515
   0.13199858  0.48122919  0.32242689
   0.28522505  0.48835901  0.19906222
   0.78821511  0.60631677  0.30541479
   0.10094233  0.57174224  0.08119149
   0.81232581  0.47847826  0.13020957
   0.08212363  0.70691925  0.29320197
   0.95494332  0.66500621  0.04883069
   0.11125489  0.40271677  0.46407365
   0.44028353  0.00681882  0.75599528
   0.33418461  0.94123602  0.92172065
   0.39278471  0.88573292  0.64077107
   0.09156636  0.84244720  0.73357265
   0.20764401  0.84709317  0.85444057
   0.31524673  0.74958385  0.74375812
   0.04149492  0.82889441  0.45442516
   0.87737602  0.90173913  0.48941129
   0.87154178  0.79488820  0.25446737
   0.89047342  0.73632919  0.53768053
   0.78127018  0.76957764  0.41709814
   0.74935970  0.09933851  0.70452003
   0.99482207  0.33838261  0.86640378
   0.37487890  0.17997267  0.86209337
   0.13926985  0.16701118  0.84300704
   0.29061564  0.33741677  0.77611051
   0.09518608  0.86881988  0.05521721
   0.21218349  0.45727764  0.94831367
   0.58842205  0.42590435  0.39198454
   0.50780596  0.57746025  0.13266188
   0.71081004  0.22915528  0.31455066
   0.52959669  0.59595901  0.29427409
   0.42405624  0.71001242  0.23688725
   0.77195412  0.41700807  0.35562676
   0.83438984  0.04889329  0.27172056
   0.50139579  0.86818012  0.12614391
   0.63831572  0.66989441  0.40465884
   0.69672051  0.93552174  0.33110919
   0.46221778  0.02269696  0.24659479
   0.53870497  0.93560248  0.38220577
   0.38886610  0.22384969  0.69950340
   0.82121756  0.55393292  0.56889262
   0.58264709  0.10133789  0.71814529
   0.20020427  0.18903665  0.65249075
   0.59152512  0.10141056  0.47858961
   0.62629157  0.19487453  0.85962767
   0.69846766  0.92432298  0.57421731
   0.62721506  0.68982609  0.61349010
   0.34695504  0.29455714  0.23099271
   0.20839092  0.95807453  0.53049895
   0.93419589  0.55820311  0.38429035
   0.90133696  0.44007888  0.73046770
   0.53035421  0.32199752  0.56636908
   0.09881891  0.60382733  0.51512030
   0.60819045  0.10687764  0.25927640
   0.79109167  0.00731398  0.85109818
   0.90274092  0.84188199  0.11256857
   0.33662064  0.52609193  0.04919969
   0.84345631  0.26305093  0.18966212
   0.67302164  0.46802733  0.98760655
   0.27085659  0.66326087  0.24937221
   0.50809299  0.41536708  0.84666601
   0.69491720  0.04534379  0.56786311
   0.65544404  0.88107453  0.46047495
   0.60651131  0.87521118  0.64465531
   0.79716302  0.87432298  0.62776680
   0.68552626  0.67654037  0.72687569
   0.71450402  0.74096273  0.29650905
   0.50711397  0.95895652  0.62928274
   0.50593589  0.69432298  0.42485626
   0.41833369  0.39913168  0.18401415
   0.34206988  0.28685031  0.35376622
   0.12356607  0.13682795  0.26400384
   0.23976977  0.34443540  0.18312407
   0.24590290  0.96795652  0.40633613
   0.27865888  0.04367739  0.57498076
   0.27890660  0.83824845  0.55975736
   0.08465201  0.95494410  0.52911451
   0.89293191  0.45145714  0.43543380
   0.66400509  0.52448571  0.30354999
   0.06829055  0.58628385  0.38956877
   0.67572973  0.31453913  0.43488587
   0.86900217  0.41084720  0.85285766
   0.02633282  0.43992547  0.75885671
   0.86782284  0.56176646  0.69286123
   0.67529294  0.48855714  0.54947326
   0.57608029  0.57548199  0.58234437
   0.47593230  0.43157019  0.51620338
   0.42630507  0.23686584  0.57564619
   0.55769589  0.26557019  0.47174045
   0.03325080  0.71168944  0.56871484
   0.34893120  0.64740994  0.58366002
   0.05455613  0.49268199  0.56972182
   0.16828942  0.72018634  0.77176358
   0.46855682  0.07049379  0.38983604
   0.69453657  0.10465466  0.14899454
   0.67936131  0.08440248  0.35409863
   0.58718157  0.23923789  0.23996541
   0.74801190  0.10095776  0.93639917
   0.68176988  0.99482609  0.78748925
   0.79270155  0.88375776  0.90045477
   0.88118855  0.03575503  0.77520338
   0.82608463  0.94373292  0.16062472
   0.92007516  0.57998261  0.23723610
   0.97202797  0.91129814  0.02766891
   0.84020536  0.76927950  0.05805021
   0.36928427  0.58327702  0.28283995
   0.44601107  0.56671304  0.98849542
   0.24460314  0.60819255  0.98333876
   0.33262528  0.41566273  0.00483941
   0.85943027  0.19152050  0.27813990
   0.74210278  0.21813851  0.11049981
   0.94838526  0.26130683  0.12684587
   0.81985104  0.36272360  0.22495997
   0.65036482  0.50417143  0.10118678
   0.59499508  0.37103230  0.94298045
   0.76441017  0.40813665  0.99022445
   0.71397363  0.56337578  0.92000380
   0.16861326  0.59010994  0.21993238
   0.30440129  0.75913665  0.18604394
   0.45634547  0.79314286  0.36377087
   0.24293274  0.70749689  0.37895105
   0.50775916  0.28206025  0.80219821
   0.70637976  0.41566273  0.65146185
   0.50364150  0.08823540  0.86329273
   0.55837915  0.48029441  0.75315212
   0.54240269  0.70413043  0.17236266
   0.22941415  0.89767702  0.00123187
   0.43179799  0.72466460  0.62994026
   0.97532884  0.61040497  0.91881052
   0.23027150  0.46957578  0.81386309
   0.38031566  0.18107702  0.99835212
   0.72234748  0.23463540  0.75675630
   0.25934536  0.17388261  0.77334041
   0.05870399  0.34851615  0.33845332
   0.96381636  0.51584720  0.12843366
   0.33729641  0.91499379  0.78665518
   0.92287685  0.81859006  0.40517755
   0.00133036  0.21702174  0.78772060
   0.53086712  0.43480559  0.25661953
   0.58529839  0.92086957  0.23515091
   0.47345820  0.13720559  0.62569683
   0.52916240  0.93644099  0.00590635
   0.37015410  0.01143435  0.16172059
   0.24723697  0.45571739  0.43501250
   0.53325573  0.76454037  0.89282632
   0.38234049  0.63667081  0.78845727
   0.14804242  0.16408447  0.99598992
   0.87727618  0.21401988  0.54906536
   0.10150329  0.25022981  0.57897458
   0.08854067  0.73437888  0.06691601
   0.08111090  0.85406211  0.27501364
   0.10554108  0.94525466  0.77408316
   0.94716226  0.79614907  0.77106344
   0.06484430  0.42454348  0.97517456
   0.77813779  0.66410559  0.50906260
   0.89375557  0.02250199  0.39175807
   0.27492496  0.37866149  0.63393409
