       N       E                     dE             d eps       ncg     rms          rms(c)
RMM:   1    -0.113257161504E+04   -0.11326E+04   -0.14691E+05   184   0.131E+03
RMM:   2     0.742323054526E+03    0.18749E+04   -0.23038E+04   184   0.254E+02
RMM:   3     0.238996166489E+03   -0.50333E+03   -0.73235E+03   184   0.135E+02
RMM:   4    -0.175384590128E+02   -0.25653E+03   -0.25854E+03   184   0.978E+01
RMM:   5    -0.129444303100E+03   -0.11191E+03   -0.10118E+03   184   0.633E+01
RMM:   6    -0.175330084360E+03   -0.45886E+02   -0.42975E+02   184   0.467E+01
RMM:   7    -0.197337489611E+03   -0.22007E+02   -0.21212E+02   184   0.355E+01
RMM:   8    -0.210228878563E+03   -0.12891E+02   -0.12164E+02   184   0.304E+01
RMM:   9    -0.244570021727E+03   -0.34341E+02   -0.34102E+02   667   0.265E+01
RMM:  10    -0.262115239987E+03   -0.17545E+02   -0.17298E+02   666   0.170E+01
RMM:  11    -0.265982779873E+03   -0.38675E+01   -0.39253E+01   644   0.103E+01
RMM:  12    -0.268122036534E+03   -0.21393E+01   -0.21367E+01   634   0.748E+00    0.379E+01
RMM:  13    -0.259436034315E+03    0.86860E+01   -0.21904E+01   494   0.735E+00    0.247E+01
RMM:  14    -0.258429363558E+03    0.10067E+01   -0.18473E+01   515   0.662E+00    0.657E+00
RMM:  15    -0.258550987764E+03   -0.12162E+00   -0.40370E+00   584   0.384E+00    0.164E+00
RMM:  16    -0.258675258016E+03   -0.12427E+00   -0.15589E+00   627   0.248E+00    0.135E+00
RMM:  17    -0.258764822215E+03   -0.89564E-01   -0.86062E-01   612   0.181E+00    0.544E-01
RMM:  18    -0.258817159843E+03   -0.52338E-01   -0.52169E-01   608   0.134E+00    0.154E-01
RMM:  19    -0.258853824503E+03   -0.36665E-01   -0.37587E-01   621   0.103E+00    0.187E-01
RMM:  20    -0.258869788373E+03   -0.15964E-01   -0.16429E-01   637   0.750E-01    0.269E-01
RMM:  21    -0.258879656522E+03   -0.98681E-02   -0.10794E-01   615   0.583E-01    0.373E-01
RMM:  22    -0.258884864607E+03   -0.52081E-02   -0.67108E-02   616   0.468E-01    0.500E-01
RMM:  23    -0.258887058005E+03   -0.21934E-02   -0.44466E-02   623   0.389E-01    0.718E-01
RMM:  24    -0.258886219596E+03    0.83841E-03   -0.37644E-02   636   0.355E-01    0.105E+00
RMM:  25    -0.258889411247E+03   -0.31917E-02   -0.22935E-02   543   0.307E-01    0.721E-01
RMM:  26    -0.258890460026E+03   -0.10488E-02   -0.12944E-02   638   0.213E-01    0.634E-01
RMM:  27    -0.258890694072E+03   -0.23405E-03   -0.81178E-03   612   0.167E-01    0.704E-01
RMM:  28    -0.258893613128E+03   -0.29191E-02   -0.19684E-02   486   0.280E-01    0.138E-01
RMM:  29    -0.258892658659E+03    0.95447E-03   -0.20816E-02   518   0.257E-01    0.368E-01
RMM:  30    -0.258893932456E+03   -0.12738E-02   -0.32068E-03   497   0.136E-01    0.132E-01
RMM:  31    -0.258894167190E+03   -0.23473E-03   -0.17927E-03   541   0.806E-02    0.552E-02
RMM:  32    -0.258894300848E+03   -0.13366E-03   -0.11631E-03   598   0.604E-02    0.172E-02
RMM:  33    -0.258894378500E+03   -0.77652E-04   -0.79904E-04   574   0.462E-02    0.133E-02
RMM:  34    -0.258894425474E+03   -0.46974E-04   -0.46319E-04   577   0.378E-02    0.218E-02
RMM:  35    -0.258894458184E+03   -0.32710E-04   -0.35795E-04   560   0.310E-02    0.282E-02
RMM:  36    -0.258894476872E+03   -0.18688E-04   -0.22332E-04   532   0.253E-02    0.300E-02
RMM:  37    -0.258894476597E+03    0.27457E-06   -0.20247E-04   499   0.271E-02    0.247E-02
RMM:  38    -0.258894476177E+03    0.41970E-06   -0.11499E-04   531   0.186E-02    0.268E-02
RMM:  39    -0.258894494501E+03   -0.18323E-04   -0.96101E-05   494   0.174E-02    0.116E-02
RMM:  40    -0.258894501634E+03   -0.71332E-05   -0.61239E-05   487   0.128E-02    0.961E-03
RMM:  41    -0.258894501048E+03    0.58617E-06   -0.36543E-05   406   0.108E-02    0.538E-03
RMM:  42    -0.258894498210E+03    0.28376E-05   -0.30521E-05   438   0.106E-02    0.516E-03
RMM:  43    -0.258894499201E+03   -0.99089E-06   -0.18099E-05   352   0.829E-03    0.401E-03
RMM:  44    -0.258894498986E+03    0.21475E-06   -0.11825E-05   315   0.753E-03    0.443E-03
RMM:  45    -0.258894499564E+03   -0.57788E-06   -0.95891E-06   351   0.720E-03
   1 F= -.25889450E+03 E0= -.25889450E+03  d E =-.258894E+03
