 vasp.5.4.4.18Apr17-6-g9f103f2a35 (build Jan 22 2020 12:49:05) complex          
  
 executed on Bebop BDW IPS19.0.5  date 2022.09.29  10:00:23
 running on   64 total cores
 distrk:  each k-point on   64 cores,    1 groups
 distr:  one band on NCORES_PER_BAND=   8 cores,    8 groups


--------------------------------------------------------------------------------------------------------


 INCAR:
 POTCAR:    PAW_PBE Li_sv 10Sep2004               
 POTCAR:    PAW_PBE P 06Sep2000                   
 POTCAR:    PAW_PBE S 06Sep2000                   
 POTCAR:    PAW_PBE Cl 06Sep2000                  
 POTCAR:    PAW_PBE Li_sv 10Sep2004               
   VRHFIN =Li: 1s2s2p                                                           
   LEXCH  = PE                                                                  
   EATOM  =   202.7858 eV,   14.9043 Ry                                         
                                                                                
   TITEL  = PAW_PBE Li_sv 10Sep2004                                             
   LULTRA =        F    use ultrasoft PP ?                                      
   IUNSCR =        0    unscreen: 0-lin 1-nonlin 2-no                           
   RPACOR =    0.000    partial core radius                                     
   POMASS =    7.010; ZVAL   =    3.000    mass and valenz                      
   RCORE  =    1.700    outmost cutoff radius                                   
   RWIGS  =    2.050; RWIGS  =    1.085    wigner-seitz radius (au A)           
   ENMAX  =  499.034; ENMIN  =  374.276 eV                                      
   ICORE  =        2    local potential                                         
   LCOR   =        T    correct aug charges                                     
   LPAW   =        T    paw PP                                                  
   EAUG   =  628.945                                                            
   RMAX   =    1.732    core radius for proj-oper                               
   RAUG   =    1.300    factor for augmentation sphere                          
   RDEP   =    1.728    radius for radial grids                                 
   RDEPT  =    1.329    core radius for aug-charge                              
                                                                                
   Atomic configuration                                                         
    4 entries                                                                   
     n  l   j            E        occ.                                          
     1  0  0.50       -51.8549   2.0000                                         
     2  0  0.50        -2.8742   1.0000                                         
     2  1  0.50        -1.3606   0.0000                                         
     3  2  1.50        -1.3606   0.0000                                         
   Description                                                                  
     l       E           TYP  RCUT    TYP  RCUT                                 
     0    -51.8548813     23  1.400                                             
     0     -2.8742052     23  1.700                                             
     1     -1.3605826     23  1.400                                             
     2     -1.3605826     23  1.400                                             
  local pseudopotential read in
  atomic valenz-charges read in
  non local Contribution for L=           0  read in
    real space projection operators read in
  non local Contribution for L=           0  read in
    real space projection operators read in
  non local Contribution for L=           1  read in
    real space projection operators read in
    PAW grid and wavefunctions read in
 
   number of l-projection  operators is LMAX  =           3
   number of lm-projection operators is LMMAX =           5
 
 POTCAR:    PAW_PBE P 06Sep2000                   
   VRHFIN =P : s2p3                                                             
   LEXCH  = PE                                                                  
   EATOM  =   176.0430 eV,   12.9388 Ry                                         
                                                                                
   TITEL  = PAW_PBE P 06Sep2000                                                 
   LULTRA =        F    use ultrasoft PP ?                                      
   IUNSCR =        1    unscreen: 0-lin 1-nonlin 2-no                           
   RPACOR =    1.500    partial core radius                                     
   POMASS =   30.974; ZVAL   =    5.000    mass and valenz                      
   RCORE  =    1.900    outmost cutoff radius                                   
   RWIGS  =    2.330; RWIGS  =    1.233    wigner-seitz radius (au A)           
   ENMAX  =  255.040; ENMIN  =  191.280 eV                                      
   ICORE  =        2    local potential                                         
   LCOR   =        T    correct aug charges                                     
   LPAW   =        T    paw PP                                                  
   EAUG   =  342.924                                                            
   DEXC   =    0.000                                                            
   RMAX   =    1.935    core radius for proj-oper                               
   RAUG   =    1.300    factor for augmentation sphere                          
   RDEP   =    1.931    radius for radial grids                                 
   RDEPT  =    1.794    core radius for aug-charge                              
                                                                                
   Atomic configuration                                                         
    6 entries                                                                   
     n  l   j            E        occ.                                          
     1  0  0.50     -2084.0982   2.0000                                         
     2  0  0.50      -173.9859   2.0000                                         
     2  1  1.50      -124.4865   6.0000                                         
     3  0  0.50       -13.9692   2.0000                                         
     3  1  0.50        -5.5067   3.0000                                         
     3  2  1.50        -5.4423   0.0000                                         
   Description                                                                  
     l       E           TYP  RCUT    TYP  RCUT                                 
     0    -13.9691527     23  1.900                                             
     0    -11.7794650     23  1.900                                             
     1     -5.5066937     23  1.900                                             
     1     -0.2556953     23  1.900                                             
     2     -5.4423304     23  1.900                                             
  local pseudopotential read in
  partial core-charges read in
  partial kinetic energy density read in
  atomic valenz-charges read in
  non local Contribution for L=           0  read in
    real space projection operators read in
  non local Contribution for L=           0  read in
    real space projection operators read in
  non local Contribution for L=           1  read in
    real space projection operators read in
  non local Contribution for L=           1  read in
    real space projection operators read in
    PAW grid and wavefunctions read in
 
   number of l-projection  operators is LMAX  =           4
   number of lm-projection operators is LMMAX =           8
 
 POTCAR:    PAW_PBE S 06Sep2000                   
   VRHFIN =S : s2p4                                                             
   LEXCH  = PE                                                                  
   EATOM  =   276.8230 eV,   20.3459 Ry                                         
                                                                                
   TITEL  = PAW_PBE S 06Sep2000                                                 
   LULTRA =        F    use ultrasoft PP ?                                      
   IUNSCR =        1    unscreen: 0-lin 1-nonlin 2-no                           
   RPACOR =    1.500    partial core radius                                     
   POMASS =   32.066; ZVAL   =    6.000    mass and valenz                      
   RCORE  =    1.900    outmost cutoff radius                                   
   RWIGS  =    2.200; RWIGS  =    1.164    wigner-seitz radius (au A)           
   ENMAX  =  258.689; ENMIN  =  194.016 eV                                      
   ICORE  =        2    local potential                                         
   LCOR   =        T    correct aug charges                                     
   LPAW   =        T    paw PP                                                  
   EAUG   =  335.092                                                            
   DEXC   =    0.000                                                            
   RMAX   =    1.942    core radius for proj-oper                               
   RAUG   =    1.300    factor for augmentation sphere                          
   RDEP   =    1.954    radius for radial grids                                 
   RDEPT  =    1.744    core radius for aug-charge                              
                                                                                
   Atomic configuration                                                         
    6 entries                                                                   
     n  l   j            E        occ.                                          
     1  0  0.50     -2405.8406   2.0000                                         
     2  0  0.50      -211.7007   2.0000                                         
     2  1  1.50      -156.4958   6.0000                                         
     3  0  0.50       -17.2562   2.0000                                         
     3  1  0.50        -7.0085   4.0000                                         
     3  2  1.50        -6.8029   0.0000                                         
   Description                                                                  
     l       E           TYP  RCUT    TYP  RCUT                                 
     0    -17.2561641     23  1.900                                             
     0    -15.8743224     23  1.900                                             
     1     -7.0085400     23  1.900                                             
     1     -2.7779785     23  1.900                                             
     2     -6.8029130     23  1.900                                             
  local pseudopotential read in
  partial core-charges read in
  partial kinetic energy density read in
  atomic valenz-charges read in
  non local Contribution for L=           0  read in
    real space projection operators read in
  non local Contribution for L=           0  read in
    real space projection operators read in
  non local Contribution for L=           1  read in
    real space projection operators read in
  non local Contribution for L=           1  read in
    real space projection operators read in
    PAW grid and wavefunctions read in
 
   number of l-projection  operators is LMAX  =           4
   number of lm-projection operators is LMMAX =           8
 
 POTCAR:    PAW_PBE Cl 06Sep2000                  
   VRHFIN =Cl: s2p5                                                             
   LEXCH  = PE                                                                  
   EATOM  =   409.7259 eV,   30.1140 Ry                                         
                                                                                
   TITEL  = PAW_PBE Cl 06Sep2000                                                
   LULTRA =        F    use ultrasoft PP ?                                      
   IUNSCR =        1    unscreen: 0-lin 1-nonlin 2-no                           
   RPACOR =    1.500    partial core radius                                     
   POMASS =   35.453; ZVAL   =    7.000    mass and valenz                      
   RCORE  =    1.900    outmost cutoff radius                                   
   RWIGS  =    2.100; RWIGS  =    1.111    wigner-seitz radius (au A)           
   ENMAX  =  262.472; ENMIN  =  196.854 eV                                      
   ICORE  =        2    local potential                                         
   LCOR   =        T    correct aug charges                                     
   LPAW   =        T    paw PP                                                  
   EAUG   =  356.192                                                            
   DEXC   =    0.000                                                            
   RMAX   =    1.945    core radius for proj-oper                               
   RAUG   =    1.300    factor for augmentation sphere                          
   RDEP   =    2.020    radius for radial grids                                 
   RDEPT  =    1.678    core radius for aug-charge                              
                                                                                
   Atomic configuration                                                         
    6 entries                                                                   
     n  l   j            E        occ.                                          
     1  0  0.50     -2751.1850   2.0000                                         
     2  0  0.50      -252.6861   2.0000                                         
     2  1  1.50      -191.6157   6.0000                                         
     3  0  0.50       -20.6916   2.0000                                         
     3  1  0.50        -8.5949   5.0000                                         
     3  2  1.50        -8.1635   0.0000                                         
   Description                                                                  
     l       E           TYP  RCUT    TYP  RCUT                                 
     0    -20.6915656     23  1.900                                             
     0    -22.0521482     23  1.900                                             
     1     -8.5948577     23  1.900                                             
     1     -5.3847331     23  1.900                                             
     2     -8.1634956     23  1.900                                             
  local pseudopotential read in
  partial core-charges read in
  partial kinetic energy density read in
  atomic valenz-charges read in
  non local Contribution for L=           0  read in
    real space projection operators read in
  non local Contribution for L=           0  read in
    real space projection operators read in
  non local Contribution for L=           1  read in
    real space projection operators read in
  non local Contribution for L=           1  read in
    real space projection operators read in
    PAW grid and wavefunctions read in
 
   number of l-projection  operators is LMAX  =           4
   number of lm-projection operators is LMMAX =           8
 

 ----------------------------------------------------------------------------- 
|                                                                             |
|  ADVICE TO THIS USER RUNNING 'VASP/VAMP'   (HEAR YOUR MASTER'S VOICE ...):  |
|                                                                             |
|      You have a (more or less) 'large supercell' and for larger cells       |
|      it might be more efficient to use real space projection opertators     |
|      So try LREAL= Auto  in the INCAR   file.                               |
|      Mind:          For very  accurate calculation you might also keep the  |
|      reciprocal projection scheme          (i.e. LREAL=.FALSE.)             |
|                                                                             |
 ----------------------------------------------------------------------------- 

  PAW_PBE Li_sv 10Sep2004               :
 energy of atom  1       EATOM= -202.7858
 kinetic energy error for atom=    0.0143 (will be added to EATOM!!)
  PAW_PBE P 06Sep2000                   :
 energy of atom  2       EATOM= -176.0430
 kinetic energy error for atom=    0.0013 (will be added to EATOM!!)
  PAW_PBE S 06Sep2000                   :
 energy of atom  3       EATOM= -276.8230
 kinetic energy error for atom=    0.0020 (will be added to EATOM!!)
  PAW_PBE Cl 06Sep2000                  :
 energy of atom  4       EATOM= -409.7259
 kinetic energy error for atom=    0.0030 (will be added to EATOM!!)
 
 
 POSCAR: New POSCAR file                         
  positions in cartesian coordinates
  No initial velocities read in
 exchange correlation table for  LEXCH =        8
   RHO(1)=    0.500       N(1)  =     2000
   RHO(2)=  100.500       N(2)  =     4000
 


--------------------------------------------------------------------------------------------------------


 ion  position               nearest neighbor table
   1  0.628  0.894  0.005-  54 2.13  51 2.33  59 2.67
   2  0.732  0.570  0.612-  61 2.25  40 2.31  55 2.44  47 2.56
   3  0.230  0.174  0.029-  48 2.32  50 2.48  59 2.60  44 2.62
   4  0.153  0.726  0.206-  65 2.38  49 2.46  31 2.47
   5  0.299  0.208  0.324-  53 2.58  60 2.58
   6  0.200  0.048  0.662-  63 2.30  41 2.49  36 2.54  39 2.66
   7  0.734  0.559  0.215-  54 2.35  46 2.56  49 2.58
   8  0.511  0.072  0.301-  53 2.29  56 2.36  64 2.47  37 2.51
   9  0.983  0.933  0.581-  40 2.41  63 2.45  52 2.48  39 2.55
  10  0.939  0.402  0.228-  62 2.44  46 2.50  50 2.51  49 2.68
  11  0.432  0.966  0.526-  53 2.36  39 2.53  58 2.62
  12  0.891  0.587  0.009-  65 2.55  46 2.64  33 2.66  54 2.68  47 2.68
  13  0.014  0.364  0.734-  55 2.20  41 2.47  48 2.50  45 2.62
  14  0.296  0.523  0.599-  45 2.20  61 2.36  60 2.56  34 2.59
  15  0.617  0.230  0.986-  57 2.38  46 2.48  56 2.56  51 2.57
  16  0.852  0.187  0.828-  51 2.22  28 2.30  55 2.50  48 2.56
  17  0.624  0.540  0.989-  54 2.33  43 2.51  46 2.56  47 2.62
  18  0.463  0.404  0.432-  60 2.29  53 2.36  61 2.46  42 2.50
  19  0.476  0.661  0.148-  42 2.38  54 2.39  27 2.57  43 2.62  37 2.66
  20  0.206  0.749  0.866-  63 2.41  65 2.44  45 2.46  43 2.59
  21  0.697  0.240  0.219-  46 2.34  62 2.42  64 2.44
  22  0.970  0.698  0.731-  63 2.38  40 2.58  45 2.62  47 2.67
  23  0.019  0.371  0.455-  60 2.43  41 2.47  62 2.52  35 2.58
  24  0.908  0.207  0.041-  46 2.24  51 2.33  48 2.47  50 2.60
  25  0.719  0.135  0.449-  64 2.32  52 2.34  62 2.43  53 2.46
  26  0.543  0.633  0.775-  47 2.48  61 2.48  58 2.49  43 2.63
  27  0.625  0.821  0.249-  54 2.32  64 2.46  19 2.57  37 2.59  42 2.69
  28  0.704  0.033  0.772-  16 2.30  51 2.39  52 2.58  57 2.62  58 2.64
  29  0.601  0.278  0.615-  61 2.37  53 2.46  57 2.51
  30  0.881  0.870  0.038-  65 2.26  51 2.31  54 2.56
  31  0.290  0.607  0.338-  60 2.09  42 2.13  34 2.35   4 2.47
  32  0.283  0.469  0.885-  43 2.06  45 2.18  33 2.29
  33  0.095  0.432  0.980-  48 2.17  44 2.17  32 2.29  12 2.66
  34  0.197  0.713  0.488-  39 1.99  31 2.35  35 2.39  14 2.59
  35  0.987  0.621  0.454-  49 2.08  40 2.09  34 2.39  23 2.58
  36  0.368  0.105  0.806-  57 2.09  38 2.11   6 2.54
  37  0.384  0.888  0.219-  59 2.14   8 2.51  27 2.59  19 2.66
  38  0.435  0.912  0.829-  36 2.11  58 2.16
  39  0.198  0.907  0.481-  34 1.99  11 2.53   9 2.55   6 2.66
  40  0.860  0.737  0.545-  35 2.09   2 2.31   9 2.41  22 2.58
  41  0.026  0.195  0.592-  52 2.09  23 2.47  13 2.47   6 2.49
  42  0.498  0.616  0.336-  31 2.13  19 2.38  18 2.50  27 2.69
  43  0.396  0.617  0.949-  32 2.06  17 2.51  20 2.59  19 2.62  26 2.63
  44  0.179  0.388  0.137-  50 2.10  33 2.17   3 2.62
  45  0.182  0.557  0.748-  32 2.18  14 2.20  20 2.46  22 2.62  13 2.62
  46  0.775  0.374  0.080-  24 2.24  21 2.34  15 2.48  10 2.50  17 2.56   7 2.56  12 2.64
  47  0.770  0.567  0.817-  55 2.01  26 2.48   2 2.56  17 2.62  22 2.67  12 2.68
  48  0.078  0.244  0.903-  33 2.17   3 2.32  24 2.47  13 2.50  16 2.56
  49  0.950  0.652  0.291-  35 2.08   4 2.46   7 2.58  10 2.68
  50  0.089  0.214  0.188-  44 2.10   3 2.48  10 2.51  24 2.60
  51  0.785  0.047  0.954-  16 2.22  30 2.31   1 2.33  24 2.33  28 2.39  15 2.57
  52  0.837  0.123  0.612-  41 2.09  25 2.34   9 2.48  28 2.58
  53  0.484  0.177  0.463-   8 2.29  11 2.36  18 2.36  29 2.46  25 2.46   5 2.58
  54  0.688  0.723  0.088-   1 2.13  27 2.32  17 2.33   7 2.35  19 2.39  30 2.56  12 2.68
  55  0.802  0.399  0.737-  47 2.01  13 2.20   2 2.44  16 2.50
  56  0.457  0.186  0.141-  59 2.02   8 2.36  15 2.56
  57  0.537  0.221  0.805-  36 2.09  15 2.38  29 2.51  28 2.62
  58  0.548  0.853  0.690-  38 2.16  26 2.49  11 2.62  28 2.64
  59  0.412  0.008  0.080-  56 2.02  37 2.14   3 2.60   1 2.67
  60  0.243  0.430  0.412-  31 2.09  18 2.29  23 2.43  14 2.56   5 2.58
  61  0.525  0.496  0.609-   2 2.25  14 2.36  29 2.37  18 2.46  26 2.48
  62  0.794  0.343  0.376-  21 2.42  25 2.43  10 2.44  23 2.52
  63  0.079  0.900  0.760-   6 2.30  22 2.38  20 2.41   9 2.45
  64  0.747  0.022  0.288-  25 2.32  21 2.44  27 2.46   8 2.47
  65  0.070  0.757  0.028-  30 2.26   4 2.38  20 2.44  12 2.55
 

IMPORTANT INFORMATION: All symmetrisations will be switched off!
NOSYMM: (Re-)initialisation of all symmetry stuff for point group C_1.

 
 
 KPOINTS: Regular mesh centered at Gamma          

Automatic generation of k-mesh.
Space group operators:
 irot       det(A)        alpha          n_x          n_y          n_z        tau_x        tau_y        tau_z
    1     1.000000     0.000000     1.000000     0.000000     0.000000     0.000000     0.000000     0.000000
 
 Subroutine IBZKPT returns following result:
 ===========================================
 
 Found      1 irreducible k-points:
 
 Following reciprocal coordinates:
            Coordinates               Weight
  0.000000  0.000000  0.000000      1.000000
 
 Following cartesian coordinates:
            Coordinates               Weight
  0.000000  0.000000  0.000000      1.000000
 


--------------------------------------------------------------------------------------------------------




 Dimension of arrays:
   k-points           NKPTS =      1   k-points in BZ     NKDIM =      1   number of bands    NBANDS=    184
   number of dos      NEDOS =    301   number of ions     NIONS =     65
   non local maximal  LDIM  =      4   non local SUM 2l+1 LMDIM =      8
   total plane-waves  NPLWV = 219520
   max r-space proj   IRMAX =      1   max aug-charges    IRDMAX=   5529
   dimension x,y,z NGX =    56 NGY =   56 NGZ =   70
   dimension x,y,z NGXF=   112 NGYF=  112 NGZF=  140
   support grid    NGXF=   112 NGYF=  112 NGZF=  140
   ions per type =              30   5  25   5
   NGX,Y,Z   is equivalent  to a cutoff of   9.08,  9.08,  9.42 a.u.
   NGXF,Y,Z  is equivalent  to a cutoff of  18.17, 18.17, 18.85 a.u.

 SYSTEM =  LPSC                                    
 POSCAR =  New POSCAR file                         

 Startparameter for this run:
   NWRITE =      2    write-flag & timer
   PREC   = normal    normal or accurate (medium, high low for compatibility)
   ISTART =      0    job   : 0-new  1-cont  2-samecut
   ICHARG =      2    charge: 1-file 2-atom 10-const
   ISPIN  =      1    spin polarized calculation?
   LNONCOLLINEAR =      F non collinear calculations
   LSORBIT =      F    spin-orbit coupling
   INIWAV =      1    electr: 0-lowe 1-rand  2-diag
   LASPH  =      F    aspherical Exc in radial PAW
   METAGGA=      F    non-selfconsistent MetaGGA calc.

 Electronic Relaxation 1
   ENCUT  =  500.0 eV  36.75 Ry    6.06 a.u.  18.69 18.69 22.52*2*pi/ulx,y,z
   ENINI  =  500.0     initial cutoff
   ENAUG  =  628.9 eV  augmentation charge cutoff
   NELM   =    100;   NELMIN=  2; NELMDL=-12     # of ELM steps 
   EDIFF  = 0.1E-05   stopping-criterion for ELM
   LREAL  =      F    real-space projection
   NLSPLINE    = F    spline interpolate recip. space projectors
   LCOMPAT=      F    compatible to vasp.4.4
   GGA_COMPAT  = T    GGA compatible to vasp.4.4-vasp.4.6
   LMAXPAW     = -100 max onsite density
   LMAXMIX     =    2 max onsite mixed and CHGCAR
   VOSKOWN=      0    Vosko Wilk Nusair interpolation
   ROPT   =    0.00000   0.00000   0.00000   0.00000
 Ionic relaxation
   EDIFFG = -.1E-01   stopping-criterion for IOM
   NSW    =      1    number of steps for IOM
   NBLOCK =      1;   KBLOCK =      1    inner block; outer block 
   IBRION =      2    ionic relax: 0-MD 1-quasi-New 2-CG
   NFREE  =      1    steps in history (QN), initial steepest desc. (CG)
   ISIF   =      2    stress and relaxation
   IWAVPR =     11    prediction:  0-non 1-charg 2-wave 3-comb
   ISYM   =      0    0-nonsym 1-usesym 2-fastsym
   LCORR  =      T    Harris-Foulkes like correction to forces

   POTIM  = 0.5000    time-step for ionic-motion
   TEIN   =    0.0    initial temperature
   TEBEG  =    0.0;   TEEND  =   0.0 temperature during run
   SMASS  =  -3.00    Nose mass-parameter (am)
   estimated Nose-frequenzy (Omega)   =  0.10E-29 period in steps =****** mass=  -0.240E-26a.u.
   SCALEE = 1.0000    scale energy and forces
   NPACO  =    256;   APACO  = 16.0  distance and # of slots for P.C.
   PSTRESS=    0.0 pullay stress

  Mass of Ions in am
   POMASS =   7.01 30.97 32.07 35.45
  Ionic Valenz
   ZVAL   =   3.00  5.00  6.00  7.00
  Atomic Wigner-Seitz radii
   RWIGS  =  -1.00 -1.00 -1.00 -1.00
  virtual crystal weights 
   VCA    =   1.00  1.00  1.00  1.00
   NELECT =     300.0000    total number of electrons
   NUPDOWN=      -1.0000    fix difference up-down

 DOS related values:
   EMIN   =  10.00;   EMAX   =-10.00  energy-range for DOS
   EFERMI =   0.00
   ISMEAR =     0;   SIGMA  =   0.05  broadening in eV -4-tet -1-fermi 0-gaus

 Electronic relaxation 2 (details)
   IALGO  =     48    algorithm
   LDIAG  =      T    sub-space diagonalisation (order eigenvalues)
   LSUBROT=      F    optimize rotation matrix (better conditioning)
   TURBO    =      0    0=normal 1=particle mesh
   IRESTART =      0    0=no restart 2=restart with 2 vectors
   NREBOOT  =      0    no. of reboots
   NMIN     =      0    reboot dimension
   EREF     =   0.00    reference energy to select bands
   IMIX   =      4    mixing-type and parameters
     AMIX     =   0.40;   BMIX     =  1.00
     AMIX_MAG =   1.60;   BMIX_MAG =  1.00
     AMIN     =   0.10
     WC   =   100.;   INIMIX=   1;  MIXPRE=   1;  MAXMIX= -45

 Intra band minimization:
   WEIMIN = 0.0010     energy-eigenvalue tresh-hold
   EBREAK =  0.14E-08  absolut break condition
   DEPER  =   0.30     relativ break condition  

   TIME   =   0.40     timestep for ELM

  volume/ion in A,a.u.               =      19.96       134.71
  Fermi-wavevector in a.u.,A,eV,Ry     =   1.004794  1.898785 13.736591  1.009611
  Thomas-Fermi vector in A             =   2.137432
 
 Write flags
   LWAVE        =      F    write WAVECAR
   LDOWNSAMPLE  =      F    k-point downsampling of WAVECAR
   LCHARG       =      F    write CHGCAR
   LVTOT        =      F    write LOCPOT, total local potential
   LVHAR        =      F    write LOCPOT, Hartree potential only
   LELF         =      F    write electronic localiz. function (ELF)
   LORBIT       =     11    0 simple, 1 ext, 2 COOP (PROOUT), +10 PAW based schemes


 Dipole corrections
   LMONO  =      F    monopole corrections only (constant potential shift)
   LDIPOL =      F    correct potential (dipole corrections)
   IDIPOL =      0    1-x, 2-y, 3-z, 4-all directions 
   EPSILON=  1.0000000 bulk dielectric constant

 Exchange correlation treatment:
   GGA     =    --    GGA type
   LEXCH   =     8    internal setting for exchange type
   VOSKOWN=      0    Vosko Wilk Nusair interpolation
   LHFCALC =     F    Hartree Fock is set to
   LHFONE  =     F    Hartree Fock one center treatment
   AEXX    =    0.0000 exact exchange contribution

 Linear response parameters
   LEPSILON=     F    determine dielectric tensor
   LRPA    =     F    only Hartree local field effects (RPA)
   LNABLA  =     F    use nabla operator in PAW spheres
   LVEL    =     F    velocity operator in full k-point grid
   LINTERFAST=   F  fast interpolation
   KINTER  =     0    interpolate to denser k-point grid
   CSHIFT  =0.1000    complex shift for real part using Kramers Kronig
   OMEGAMAX=  -1.0    maximum frequency
   DEG_THRESHOLD= 0.2000000E-02 threshold for treating states as degnerate
   RTIME   =   -0.100 relaxation time in fs
  (WPLASMAI=    0.000 imaginary part of plasma frequency in eV, 0.658/RTIME)
   DFIELD  = 0.0000000 0.0000000 0.0000000 field for delta impulse in time
 
 Orbital magnetization related:
   ORBITALMAG=     F  switch on orbital magnetization
   LCHIMAG   =     F  perturbation theory with respect to B field
   DQ        =  0.001000  dq finite difference perturbation B field
   LLRAUG    =     F  two centre corrections for induced B field



--------------------------------------------------------------------------------------------------------


 conjugate gradient relaxation of ions
 charge density and potential will be updated during run
 non-spin polarized calculation
 RMM-DIIS sequential band-by-band
 perform sub-space diagonalisation
    before iterative eigenvector-optimisation
 modified Broyden-mixing scheme, WC =      100.0
 initial mixing is a Kerker type mixing with AMIX =  0.4000 and BMIX =      1.0000
 Hartree-type preconditioning will be used
 using additional bands           34
 reciprocal scheme for non local part
 use partial core corrections
 calculate Harris-corrections to forces 
   (improved forces if not selfconsistent)
 use gradient corrections 
 use of overlap-Matrix (Vanderbilt PP)
 Gauss-broadening in eV      SIGMA  =   0.05


--------------------------------------------------------------------------------------------------------


  energy-cutoff  :      500.00
  volume of cell :     1297.52
      direct lattice vectors                 reciprocal lattice vectors
    10.250000000  0.000000000  0.000000000     0.097560976  0.000000000  0.000000000
     0.000000000 10.250000000  0.000000000     0.000000000  0.097560976  0.000000000
     0.000000000  0.000000000 12.350000000     0.000000000  0.000000000  0.080971660

  length of vectors
    10.250000000 10.250000000 12.350000000     0.097560976  0.097560976  0.080971660


 
 k-points in units of 2pi/SCALE and weight: Regular mesh centered at Gamma          
   0.00000000  0.00000000  0.00000000       1.000
 
 k-points in reciprocal lattice and weights: Regular mesh centered at Gamma          
   0.00000000  0.00000000  0.00000000       1.000
 
 position of ions in fractional coordinates (direct lattice) 
   0.62779512  0.89425073  0.00458215
   0.73197268  0.56971805  0.61190040
   0.22999415  0.17411707  0.02878632
   0.15340488  0.72621854  0.20589879
   0.29852195  0.20803902  0.32432065
   0.19957366  0.04809532  0.66227530
   0.73414244  0.55904390  0.21522672
   0.51118927  0.07181824  0.30122915
   0.98254634  0.93267220  0.58073846
   0.93873854  0.40240780  0.22751822
   0.43212195  0.96609366  0.52588664
   0.89050439  0.58741171  0.00851806
   0.01430546  0.36397171  0.73419676
   0.29598244  0.52273951  0.59934494
   0.61723415  0.22965463  0.98614575
   0.85201268  0.18684293  0.82785425
   0.62387610  0.54000293  0.98940081
   0.46330049  0.40390634  0.43235951
   0.47608683  0.66063512  0.14753117
   0.20601366  0.74909756  0.86604049
   0.69731512  0.24015512  0.21923644
   0.96999707  0.69755902  0.73068016
   0.01885629  0.37132488  0.45515951
   0.90757561  0.20738634  0.04058575
   0.71942927  0.13510537  0.44924211
   0.54280000  0.63253951  0.77489636
   0.62474732  0.82067024  0.24893279
   0.70378341  0.03262937  0.77213684
   0.60069659  0.27846537  0.61539028
   0.88054537  0.86997561  0.03758777
   0.29042537  0.60738049  0.33795709
   0.28346732  0.46931220  0.88485830
   0.09519063  0.43240585  0.97993522
   0.19734537  0.71302244  0.48789474
   0.98715122  0.62111805  0.45438866
   0.36834634  0.10549366  0.80559109
   0.38381463  0.88763415  0.21947368
   0.43459415  0.91208780  0.82857490
   0.19848293  0.90734146  0.48087935
   0.85987610  0.73685073  0.54535223
   0.02585688  0.19540195  0.59163725
   0.49765659  0.61605366  0.33616680
   0.39620585  0.61682537  0.94947368
   0.17870537  0.38827805  0.13712955
   0.18190732  0.55669854  0.74799190
   0.77497366  0.37413854  0.07982275
   0.76991805  0.56724878  0.81674494
   0.07750254  0.24363610  0.90255061
   0.94962829  0.65216195  0.29100567
   0.08881473  0.21439707  0.18794899
   0.78471707  0.04707307  0.95357085
   0.83694341  0.12258049  0.61180486
   0.48368195  0.17724293  0.46342672
   0.68841756  0.72290829  0.08761943
   0.80220293  0.39948976  0.73697490
   0.45717659  0.18553171  0.14103077
   0.53660000  0.22128390  0.80548745
   0.54777659  0.85295512  0.68972308
   0.41202927  0.00787192  0.07991401
   0.24310244  0.42990537  0.41217571
   0.52465366  0.49649268  0.60934332
   0.79366049  0.34289756  0.37624696
   0.07889893  0.89984098  0.75987611
   0.74657756  0.02240556  0.28766397
   0.06990478  0.75747122  0.02791506
 
 position of ions in cartesian coordinates  (Angst):
   6.43490000  9.16607000  0.05658960
   7.50272000  5.83961000  7.55697000
   2.35744000  1.78470000  0.35551100
   1.57240000  7.44374000  2.54285000
   3.05985000  2.13240000  4.00536000
   2.04563000  0.49297700  8.17910000
   7.52496000  5.73020000  2.65805000
   5.23969000  0.73613700  3.72018000
  10.07110000  9.55989000  7.17212000
   9.62207000  4.12468000  2.80985000
   4.42925000  9.90246000  6.49470000
   9.12767000  6.02097000  0.10519800
   0.14663100  3.73071000  9.06733000
   3.03382000  5.35808000  7.40191000
   6.32665000  2.35396000 12.17890000
   8.73313000  1.91514000 10.22400000
   6.39473000  5.53503000 12.21910000
   4.74883000  4.14004000  5.33964000
   4.87989000  6.77151000  1.82201000
   2.11164000  7.67825000 10.69560000
   7.14748000  2.46159000  2.70757000
   9.94247000  7.14998000  9.02390000
   0.19327700  3.80608000  5.62122000
   9.30265000  2.12571000  0.50123400
   7.37415000  1.38483000  5.54814000
   5.56370000  6.48353000  9.56997000
   6.40366000  8.41187000  3.07432000
   7.21378000  0.33445100  9.53589000
   6.15714000  2.85427000  7.60007000
   9.02559000  8.91725000  0.46420900
   2.97686000  6.22565000  4.17377000
   2.90554000  4.81045000 10.92800000
   0.97570400  4.43216000 12.10220000
   2.02279000  7.30848000  6.02550000
  10.11830000  6.36646000  5.61170000
   3.77555000  1.08131000  9.94905000
   3.93410000  9.09825000  2.71050000
   4.45459000  9.34890000 10.23290000
   2.03445000  9.30025000  5.93886000
   8.81373000  7.55272000  6.73510000
   0.26503300  2.00287000  7.30672000
   5.10098000  6.31455000  4.15166000
   4.06111000  6.32246000 11.72600000
   1.83173000  3.97985000  1.69355000
   1.86455000  5.70616000  9.23770000
   7.94348000  3.83492000  0.98581100
   7.89166000  5.81430000 10.08680000
   0.79440100  2.49727000 11.14650000
   9.73369000  6.68466000  3.59392000
   0.91035100  2.19757000  2.32117000
   8.04335000  0.48249900 11.77660000
   8.57867000  1.25645000  7.55579000
   4.95774000  1.81674000  5.72332000
   7.05628000  7.40981000  1.08210000
   8.22258000  4.09477000  9.10164000
   4.68606000  1.90170000  1.74173000
   5.50015000  2.26816000  9.94777000
   5.61471000  8.74279000  8.51808000
   4.22330000  0.08068720  0.98693800
   2.49180000  4.40653000  5.09037000
   5.37770000  5.08905000  7.52539000
   8.13502000  3.51470000  4.64665000
   0.80871400  9.22337000  9.38447000
   7.65242000  0.22965700  3.55265000
   0.71652400  7.76408000  0.34475100
 


--------------------------------------------------------------------------------------------------------


 k-point  1 :   0.0000 0.0000 0.0000  plane waves:   33049

 maximum and minimum number of plane-waves per node :      4138     4129

 maximum number of plane-waves:     33049
 maximum index in each direction: 
   IXMAX=   18   IYMAX=   18   IZMAX=   22
   IXMIN=  -18   IYMIN=  -18   IZMIN=  -22


 parallel 3D FFT for wavefunctions:
    minimum data exchange during FFTs selected (reduces bandwidth)
 parallel 3D FFT for charge:
    minimum data exchange during FFTs selected (reduces bandwidth)


 total amount of memory used by VASP MPI-rank0    42204. kBytes
=======================================================================

   base      :      30000. kBytes
   nonl-proj :       5360. kBytes
   fftplans  :       1886. kBytes
   grid      :       3386. kBytes
   one-center:         27. kBytes
   wavefun   :       1545. kBytes
 
     INWAV:  cpu time    0.0001: real time    0.0001
 Broyden mixing: mesh for mixing (old mesh)
   NGX = 37   NGY = 37   NGZ = 45
  (NGX  =112   NGY  =112   NGZ  =140)
  gives a total of  61605 points

 initial charge density was supplied:
 charge density of overlapping atoms calculated
 number of electron     300.0000000 magnetization 
 keeping initial charge density in first step


--------------------------------------------------------------------------------------------------------


 Maximum index for augmentation-charges          349 (set IRDMAX)


--------------------------------------------------------------------------------------------------------


 First call to EWALD:  gamma=   0.163
 Maximum number of real-space cells 3x 3x 2
 Maximum number of reciprocal cells 3x 3x 3

    FEWALD:  cpu time    0.0091: real time    0.0101


--------------------------------------- Iteration      1(   1)  ---------------------------------------


    POTLOK:  cpu time    0.0887: real time    0.1134
    SETDIJ:  cpu time    0.0161: real time    0.0180
    EDDIAG:  cpu time    0.2468: real time    0.2637
  RMM-DIIS:  cpu time    0.3512: real time    0.3529
    ORTHCH:  cpu time    0.0216: real time    0.0216
       DOS:  cpu time    0.0014: real time    0.0022
    --------------------------------------------
      LOOP:  cpu time    0.7261: real time    0.7721

 eigenvalue-minimisations  :   184
 total energy-change (2. order) :-0.1132572E+04  (-0.1469056E+05)
 number of electron     300.0000000 magnetization 
 augmentation part      300.0000000 magnetization 

 Free energy of the ion-electron system (eV)
  ---------------------------------------------------
  alpha Z        PSCENC =       256.70245505
  Ewald energy   TEWEN  =     -9920.34864952
  -Hartree energ DENC   =     -3346.72120851
  -exchange      EXHF   =         0.00000000
  -V(xc)+E(xc)   XCENC  =       791.77717032
  PAW double counting   =     10155.13001117   -10497.29644279
  entropy T*S    EENTRO =        -0.00101600
  eigenvalues    EBANDS =     -4504.30930966
  atomic energy  EATOM  =     15932.49537490
  Solvation  Ediel_sol  =         0.00000000
  ---------------------------------------------------
  free energy    TOTEN  =     -1132.57161504 eV

  energy without entropy =    -1132.57059904  energy(sigma->0) =    -1132.57110704


--------------------------------------------------------------------------------------------------------




--------------------------------------- Iteration      1(   2)  ---------------------------------------


    EDDIAG:  cpu time    0.1894: real time    0.1893
  RMM-DIIS:  cpu time    0.3360: real time    0.3357
    ORTHCH:  cpu time    0.0218: real time    0.0218
       DOS:  cpu time    0.0010: real time    0.0010
    --------------------------------------------
      LOOP:  cpu time    0.5482: real time    0.5478

 eigenvalue-minimisations  :   184
 total energy-change (2. order) : 0.1874895E+04  (-0.2303766E+04)
 number of electron     300.0000000 magnetization 
 augmentation part      300.0000000 magnetization 

 Free energy of the ion-electron system (eV)
  ---------------------------------------------------
  alpha Z        PSCENC =       256.70245505
  Ewald energy   TEWEN  =     -9920.34864952
  -Hartree energ DENC   =     -3346.72120851
  -exchange      EXHF   =         0.00000000
  -V(xc)+E(xc)   XCENC  =       791.77717032
  PAW double counting   =     10155.13001117   -10497.29644279
  entropy T*S    EENTRO =        -0.00000005
  eigenvalues    EBANDS =     -2629.41565606
  atomic energy  EATOM  =     15932.49537490
  Solvation  Ediel_sol  =         0.00000000
  ---------------------------------------------------
  free energy    TOTEN  =       742.32305453 eV

  energy without entropy =      742.32305457  energy(sigma->0) =      742.32305455


--------------------------------------------------------------------------------------------------------




--------------------------------------- Iteration      1(   3)  ---------------------------------------


    EDDIAG:  cpu time    0.1887: real time    0.1885
  RMM-DIIS:  cpu time    0.3385: real time    0.3433
    ORTHCH:  cpu time    0.0216: real time    0.0216
       DOS:  cpu time    0.0010: real time    0.0010
    --------------------------------------------
      LOOP:  cpu time    0.5498: real time    0.5544

 eigenvalue-minimisations  :   184
 total energy-change (2. order) :-0.5033269E+03  (-0.7323527E+03)
 number of electron     300.0000000 magnetization 
 augmentation part      300.0000000 magnetization 

 Free energy of the ion-electron system (eV)
  ---------------------------------------------------
  alpha Z        PSCENC =       256.70245505
  Ewald energy   TEWEN  =     -9920.34864952
  -Hartree energ DENC   =     -3346.72120851
  -exchange      EXHF   =         0.00000000
  -V(xc)+E(xc)   XCENC  =       791.77717032
  PAW double counting   =     10155.13001117   -10497.29644279
  entropy T*S    EENTRO =        -0.04335040
  eigenvalues    EBANDS =     -3132.69919374
  atomic energy  EATOM  =     15932.49537490
  Solvation  Ediel_sol  =         0.00000000
  ---------------------------------------------------
  free energy    TOTEN  =       238.99616649 eV

  energy without entropy =      239.03951689  energy(sigma->0) =      239.01784169


--------------------------------------------------------------------------------------------------------




--------------------------------------- Iteration      1(   4)  ---------------------------------------


    EDDIAG:  cpu time    0.1879: real time    0.1878
  RMM-DIIS:  cpu time    0.3382: real time    0.3380
    ORTHCH:  cpu time    0.0215: real time    0.0215
       DOS:  cpu time    0.0012: real time    0.0012
    --------------------------------------------
      LOOP:  cpu time    0.5489: real time    0.5484

 eigenvalue-minimisations  :   184
 total energy-change (2. order) :-0.2565346E+03  (-0.2585383E+03)
 number of electron     300.0000000 magnetization 
 augmentation part      300.0000000 magnetization 

 Free energy of the ion-electron system (eV)
  ---------------------------------------------------
  alpha Z        PSCENC =       256.70245505
  Ewald energy   TEWEN  =     -9920.34864952
  -Hartree energ DENC   =     -3346.72120851
  -exchange      EXHF   =         0.00000000
  -V(xc)+E(xc)   XCENC  =       791.77717032
  PAW double counting   =     10155.13001117   -10497.29644279
  entropy T*S    EENTRO =        -0.05369166
  eigenvalues    EBANDS =     -3389.22347798
  atomic energy  EATOM  =     15932.49537490
  Solvation  Ediel_sol  =         0.00000000
  ---------------------------------------------------
  free energy    TOTEN  =       -17.53845901 eV

  energy without entropy =      -17.48476735  energy(sigma->0) =      -17.51161318


--------------------------------------------------------------------------------------------------------




--------------------------------------- Iteration      1(   5)  ---------------------------------------


    EDDIAG:  cpu time    0.1850: real time    0.1849
  RMM-DIIS:  cpu time    0.3359: real time    0.3356
    ORTHCH:  cpu time    0.0216: real time    0.0216
       DOS:  cpu time    0.0007: real time    0.0007
    --------------------------------------------
      LOOP:  cpu time    0.5432: real time    0.5428

 eigenvalue-minimisations  :   184
 total energy-change (2. order) :-0.1119058E+03  (-0.1011814E+03)
 number of electron     300.0000000 magnetization 
 augmentation part      300.0000000 magnetization 

 Free energy of the ion-electron system (eV)
  ---------------------------------------------------
  alpha Z        PSCENC =       256.70245505
  Ewald energy   TEWEN  =     -9920.34864952
  -Hartree energ DENC   =     -3346.72120851
  -exchange      EXHF   =         0.00000000
  -V(xc)+E(xc)   XCENC  =       791.77717032
  PAW double counting   =     10155.13001117   -10497.29644279
  entropy T*S    EENTRO =        -0.00000000
  eigenvalues    EBANDS =     -3501.18301373
  atomic energy  EATOM  =     15932.49537490
  Solvation  Ediel_sol  =         0.00000000
  ---------------------------------------------------
  free energy    TOTEN  =      -129.44430310 eV

  energy without entropy =     -129.44430310  energy(sigma->0) =     -129.44430310


--------------------------------------------------------------------------------------------------------




--------------------------------------- Iteration      1(   6)  ---------------------------------------


    EDDIAG:  cpu time    0.1954: real time    0.1952
  RMM-DIIS:  cpu time    0.3779: real time    0.3776
    ORTHCH:  cpu time    0.0256: real time    0.0256
       DOS:  cpu time    0.0007: real time    0.0007
    --------------------------------------------
      LOOP:  cpu time    0.5995: real time    0.5990

 eigenvalue-minimisations  :   184
 total energy-change (2. order) :-0.4588578E+02  (-0.4297456E+02)
 number of electron     300.0000000 magnetization 
 augmentation part      300.0000000 magnetization 

 Free energy of the ion-electron system (eV)
  ---------------------------------------------------
  alpha Z        PSCENC =       256.70245505
  Ewald energy   TEWEN  =     -9920.34864952
  -Hartree energ DENC   =     -3346.72120851
  -exchange      EXHF   =         0.00000000
  -V(xc)+E(xc)   XCENC  =       791.77717032
  PAW double counting   =     10155.13001117   -10497.29644279
  entropy T*S    EENTRO =        -0.00000000
  eigenvalues    EBANDS =     -3547.06879499
  atomic energy  EATOM  =     15932.49537490
  Solvation  Ediel_sol  =         0.00000000
  ---------------------------------------------------
  free energy    TOTEN  =      -175.33008436 eV

  energy without entropy =     -175.33008436  energy(sigma->0) =     -175.33008436


--------------------------------------------------------------------------------------------------------




--------------------------------------- Iteration      1(   7)  ---------------------------------------


    EDDIAG:  cpu time    0.2001: real time    0.2000
  RMM-DIIS:  cpu time    0.3863: real time    0.3860
    ORTHCH:  cpu time    0.0269: real time    0.0269
       DOS:  cpu time    0.0007: real time    0.0006
    --------------------------------------------
      LOOP:  cpu time    0.6139: real time    0.6135

 eigenvalue-minimisations  :   184
 total energy-change (2. order) :-0.2200741E+02  (-0.2121230E+02)
 number of electron     300.0000000 magnetization 
 augmentation part      300.0000000 magnetization 

 Free energy of the ion-electron system (eV)
  ---------------------------------------------------
  alpha Z        PSCENC =       256.70245505
  Ewald energy   TEWEN  =     -9920.34864952
  -Hartree energ DENC   =     -3346.72120851
  -exchange      EXHF   =         0.00000000
  -V(xc)+E(xc)   XCENC  =       791.77717032
  PAW double counting   =     10155.13001117   -10497.29644279
  entropy T*S    EENTRO =        -0.00000000
  eigenvalues    EBANDS =     -3569.07620024
  atomic energy  EATOM  =     15932.49537490
  Solvation  Ediel_sol  =         0.00000000
  ---------------------------------------------------
  free energy    TOTEN  =      -197.33748961 eV

  energy without entropy =     -197.33748961  energy(sigma->0) =     -197.33748961


--------------------------------------------------------------------------------------------------------




--------------------------------------- Iteration      1(   8)  ---------------------------------------


    EDDIAG:  cpu time    0.1969: real time    0.1967
  RMM-DIIS:  cpu time    0.3344: real time    0.3341
    ORTHCH:  cpu time    0.0218: real time    0.0218
       DOS:  cpu time    0.0006: real time    0.0006
    --------------------------------------------
      LOOP:  cpu time    0.5538: real time    0.5533

 eigenvalue-minimisations  :   184
 total energy-change (2. order) :-0.1289139E+02  (-0.1216426E+02)
 number of electron     300.0000000 magnetization 
 augmentation part      300.0000000 magnetization 

 Free energy of the ion-electron system (eV)
  ---------------------------------------------------
  alpha Z        PSCENC =       256.70245505
  Ewald energy   TEWEN  =     -9920.34864952
  -Hartree energ DENC   =     -3346.72120851
  -exchange      EXHF   =         0.00000000
  -V(xc)+E(xc)   XCENC  =       791.77717032
  PAW double counting   =     10155.13001117   -10497.29644279
  entropy T*S    EENTRO =        -0.00000000
  eigenvalues    EBANDS =     -3581.96758919
  atomic energy  EATOM  =     15932.49537490
  Solvation  Ediel_sol  =         0.00000000
  ---------------------------------------------------
  free energy    TOTEN  =      -210.22887856 eV

  energy without entropy =     -210.22887856  energy(sigma->0) =     -210.22887856


--------------------------------------------------------------------------------------------------------




--------------------------------------- Iteration      1(   9)  ---------------------------------------


    EDDIAG:  cpu time    0.1829: real time    0.1828
  RMM-DIIS:  cpu time    1.1765: real time    1.1755
    ORTHCH:  cpu time    0.0274: real time    0.0274
       DOS:  cpu time    0.0007: real time    0.0007
    --------------------------------------------
      LOOP:  cpu time    1.3875: real time    1.3864

 eigenvalue-minimisations  :   667
 total energy-change (2. order) :-0.3434114E+02  (-0.3410223E+02)
 number of electron     300.0000000 magnetization 
 augmentation part      300.0000000 magnetization 

 Free energy of the ion-electron system (eV)
  ---------------------------------------------------
  alpha Z        PSCENC =       256.70245505
  Ewald energy   TEWEN  =     -9920.34864952
  -Hartree energ DENC   =     -3346.72120851
  -exchange      EXHF   =         0.00000000
  -V(xc)+E(xc)   XCENC  =       791.77717032
  PAW double counting   =     10155.13001117   -10497.29644279
  entropy T*S    EENTRO =        -0.00000000
  eigenvalues    EBANDS =     -3616.30873235
  atomic energy  EATOM  =     15932.49537490
  Solvation  Ediel_sol  =         0.00000000
  ---------------------------------------------------
  free energy    TOTEN  =      -244.57002173 eV

  energy without entropy =     -244.57002173  energy(sigma->0) =     -244.57002173


--------------------------------------------------------------------------------------------------------




--------------------------------------- Iteration      1(  10)  ---------------------------------------


    EDDIAG:  cpu time    0.1891: real time    0.1890
  RMM-DIIS:  cpu time    1.1747: real time    1.1736
    ORTHCH:  cpu time    0.0324: real time    0.0323
       DOS:  cpu time    0.0007: real time    0.0006
    --------------------------------------------
      LOOP:  cpu time    1.3969: real time    1.3956

 eigenvalue-minimisations  :   666
 total energy-change (2. order) :-0.1754522E+02  (-0.1729760E+02)
 number of electron     300.0000000 magnetization 
 augmentation part      300.0000000 magnetization 

 Free energy of the ion-electron system (eV)
  ---------------------------------------------------
  alpha Z        PSCENC =       256.70245505
  Ewald energy   TEWEN  =     -9920.34864952
  -Hartree energ DENC   =     -3346.72120851
  -exchange      EXHF   =         0.00000000
  -V(xc)+E(xc)   XCENC  =       791.77717032
  PAW double counting   =     10155.13001117   -10497.29644279
  entropy T*S    EENTRO =        -0.00000000
  eigenvalues    EBANDS =     -3633.85395062
  atomic energy  EATOM  =     15932.49537490
  Solvation  Ediel_sol  =         0.00000000
  ---------------------------------------------------
  free energy    TOTEN  =      -262.11523999 eV

  energy without entropy =     -262.11523999  energy(sigma->0) =     -262.11523999


--------------------------------------------------------------------------------------------------------




--------------------------------------- Iteration      1(  11)  ---------------------------------------


    EDDIAG:  cpu time    0.1906: real time    0.1905
  RMM-DIIS:  cpu time    1.1401: real time    1.1391
    ORTHCH:  cpu time    0.0322: real time    0.0322
       DOS:  cpu time    0.0008: real time    0.0007
    --------------------------------------------
      LOOP:  cpu time    1.3635: real time    1.3625

 eigenvalue-minimisations  :   644
 total energy-change (2. order) :-0.3867540E+01  (-0.3925290E+01)
 number of electron     300.0000000 magnetization 
 augmentation part      300.0000000 magnetization 

 Free energy of the ion-electron system (eV)
  ---------------------------------------------------
  alpha Z        PSCENC =       256.70245505
  Ewald energy   TEWEN  =     -9920.34864952
  -Hartree energ DENC   =     -3346.72120851
  -exchange      EXHF   =         0.00000000
  -V(xc)+E(xc)   XCENC  =       791.77717032
  PAW double counting   =     10155.13001117   -10497.29644279
  entropy T*S    EENTRO =        -0.00000000
  eigenvalues    EBANDS =     -3637.72149050
  atomic energy  EATOM  =     15932.49537490
  Solvation  Ediel_sol  =         0.00000000
  ---------------------------------------------------
  free energy    TOTEN  =      -265.98277987 eV

  energy without entropy =     -265.98277987  energy(sigma->0) =     -265.98277987


--------------------------------------------------------------------------------------------------------




--------------------------------------- Iteration      1(  12)  ---------------------------------------


    EDDIAG:  cpu time    0.1906: real time    0.1904
  RMM-DIIS:  cpu time    1.1160: real time    1.1151
    ORTHCH:  cpu time    0.0379: real time    0.0378
       DOS:  cpu time    0.0008: real time    0.0008
    CHARGE:  cpu time    0.0432: real time    0.0465
    MIXING:  cpu time    0.0059: real time    0.0088
    --------------------------------------------
      LOOP:  cpu time    1.3946: real time    1.3995

 eigenvalue-minimisations  :   634
 total energy-change (2. order) :-0.2139257E+01  (-0.2136676E+01)
 number of electron     299.9999918 magnetization 
 augmentation part        2.0878832 magnetization 

 Broyden mixing:
  rms(total) = 0.37910E+01    rms(broyden)= 0.37894E+01
  rms(prec ) = 0.40432E+01
  weight for this iteration     100.00

 Free energy of the ion-electron system (eV)
  ---------------------------------------------------
  alpha Z        PSCENC =       256.70245505
  Ewald energy   TEWEN  =     -9920.34864952
  -Hartree energ DENC   =     -3346.72120851
  -exchange      EXHF   =         0.00000000
  -V(xc)+E(xc)   XCENC  =       791.77717032
  PAW double counting   =     10155.13001117   -10497.29644279
  entropy T*S    EENTRO =        -0.00000000
  eigenvalues    EBANDS =     -3639.86074716
  atomic energy  EATOM  =     15932.49537490
  Solvation  Ediel_sol  =         0.00000000
  ---------------------------------------------------
  free energy    TOTEN  =      -268.12203653 eV

  energy without entropy =     -268.12203653  energy(sigma->0) =     -268.12203653


--------------------------------------------------------------------------------------------------------




--------------------------------------- Iteration      1(  13)  ---------------------------------------


    POTLOK:  cpu time    0.0702: real time    0.0703
    SETDIJ:  cpu time    0.0147: real time    0.0147
    EDDIAG:  cpu time    0.1823: real time    0.1821
  RMM-DIIS:  cpu time    0.8567: real time    0.8561
    ORTHCH:  cpu time    0.0360: real time    0.0359
       DOS:  cpu time    0.0009: real time    0.0009
    CHARGE:  cpu time    0.0412: real time    0.0412
    MIXING:  cpu time    0.0038: real time    0.0042
    --------------------------------------------
      LOOP:  cpu time    1.2057: real time    1.2053

 eigenvalue-minimisations  :   494
 total energy-change (2. order) : 0.8686002E+01  (-0.2190406E+01)
 number of electron     299.9999919 magnetization 
 augmentation part        2.2407742 magnetization 

 Broyden mixing:
  rms(total) = 0.24669E+01    rms(broyden)= 0.24669E+01
  rms(prec ) = 0.25637E+01
  weight for this iteration     100.00

 eigenvalues of (default mixing * dielectric matrix)
  average eigenvalue GAMMA=   2.2920
  2.2920

 Free energy of the ion-electron system (eV)
  ---------------------------------------------------
  alpha Z        PSCENC =       256.70245505
  Ewald energy   TEWEN  =     -9920.34864952
  -Hartree energ DENC   =     -3426.77734957
  -exchange      EXHF   =         0.00000000
  -V(xc)+E(xc)   XCENC  =       797.75840753
  PAW double counting   =     13924.77736472   -14273.50721702
  entropy T*S    EENTRO =        -0.00000000
  eigenvalues    EBANDS =     -3550.53642041
  atomic energy  EATOM  =     15932.49537490
  Solvation  Ediel_sol  =         0.00000000
  ---------------------------------------------------
  free energy    TOTEN  =      -259.43603431 eV

  energy without entropy =     -259.43603431  energy(sigma->0) =     -259.43603431


--------------------------------------------------------------------------------------------------------




--------------------------------------- Iteration      1(  14)  ---------------------------------------


    POTLOK:  cpu time    0.0699: real time    0.0699
    SETDIJ:  cpu time    0.0147: real time    0.0147
    EDDIAG:  cpu time    0.1810: real time    0.1809
  RMM-DIIS:  cpu time    0.9124: real time    0.9114
    ORTHCH:  cpu time    0.0344: real time    0.0344
       DOS:  cpu time    0.0009: real time    0.0009
    CHARGE:  cpu time    0.0410: real time    0.0410
    MIXING:  cpu time    0.0034: real time    0.0033
    --------------------------------------------
      LOOP:  cpu time    1.2577: real time    1.2565

 eigenvalue-minimisations  :   515
 total energy-change (2. order) : 0.1006671E+01  (-0.1847330E+01)
 number of electron     299.9999920 magnetization 
 augmentation part        2.0848830 magnetization 

 Broyden mixing:
  rms(total) = 0.65726E+00    rms(broyden)= 0.65716E+00
  rms(prec ) = 0.70053E+00
  weight for this iteration     100.00

 eigenvalues of (default mixing * dielectric matrix)
  average eigenvalue GAMMA=   1.9379
  1.4473  2.4286

 Free energy of the ion-electron system (eV)
  ---------------------------------------------------
  alpha Z        PSCENC =       256.70245505
  Ewald energy   TEWEN  =     -9920.34864952
  -Hartree energ DENC   =     -3509.41728588
  -exchange      EXHF   =         0.00000000
  -V(xc)+E(xc)   XCENC  =       804.30707948
  PAW double counting   =     21349.94001254   -21706.73708966
  entropy T*S    EENTRO =        -0.00000000
  eigenvalues    EBANDS =     -3465.37126048
  atomic energy  EATOM  =     15932.49537490
  Solvation  Ediel_sol  =         0.00000000
  ---------------------------------------------------
  free energy    TOTEN  =      -258.42936356 eV

  energy without entropy =     -258.42936356  energy(sigma->0) =     -258.42936356


--------------------------------------------------------------------------------------------------------




--------------------------------------- Iteration      1(  15)  ---------------------------------------


    POTLOK:  cpu time    0.0687: real time    0.0687
    SETDIJ:  cpu time    0.0146: real time    0.0146
    EDDIAG:  cpu time    0.1812: real time    0.1810
  RMM-DIIS:  cpu time    1.1639: real time    1.1629
    ORTHCH:  cpu time    0.0388: real time    0.0387
       DOS:  cpu time    0.0009: real time    0.0009
    CHARGE:  cpu time    0.0481: real time    0.0481
    MIXING:  cpu time    0.0036: real time    0.0036
    --------------------------------------------
      LOOP:  cpu time    1.5197: real time    1.5186

 eigenvalue-minimisations  :   584
 total energy-change (2. order) :-0.1216242E+00  (-0.4037030E+00)
 number of electron     299.9999921 magnetization 
 augmentation part        1.7109281 magnetization 

 Broyden mixing:
  rms(total) = 0.16402E+00    rms(broyden)= 0.16355E+00
  rms(prec ) = 0.18341E+00
  weight for this iteration     100.00

 eigenvalues of (default mixing * dielectric matrix)
  average eigenvalue GAMMA=   1.6023
  2.3617  1.0821  1.3631

 Free energy of the ion-electron system (eV)
  ---------------------------------------------------
  alpha Z        PSCENC =       256.70245505
  Ewald energy   TEWEN  =     -9920.34864952
  -Hartree energ DENC   =     -3509.10476584
  -exchange      EXHF   =         0.00000000
  -V(xc)+E(xc)   XCENC  =       804.50503543
  PAW double counting   =     23149.87681085   -23508.76545731
  entropy T*S    EENTRO =        -0.00000000
  eigenvalues    EBANDS =     -3463.91179133
  atomic energy  EATOM  =     15932.49537490
  Solvation  Ediel_sol  =         0.00000000
  ---------------------------------------------------
  free energy    TOTEN  =      -258.55098776 eV

  energy without entropy =     -258.55098776  energy(sigma->0) =     -258.55098776


--------------------------------------------------------------------------------------------------------




--------------------------------------- Iteration      1(  16)  ---------------------------------------


    POTLOK:  cpu time    0.0685: real time    0.0685
    SETDIJ:  cpu time    0.0147: real time    0.0147
    EDDIAG:  cpu time    0.1823: real time    0.1821
  RMM-DIIS:  cpu time    1.0889: real time    1.0880
    ORTHCH:  cpu time    0.0345: real time    0.0345
       DOS:  cpu time    0.0008: real time    0.0008
    CHARGE:  cpu time    0.0406: real time    0.0406
    MIXING:  cpu time    0.0036: real time    0.0036
    --------------------------------------------
      LOOP:  cpu time    1.4339: real time    1.4327

 eigenvalue-minimisations  :   627
 total energy-change (2. order) :-0.1242703E+00  (-0.1558914E+00)
 number of electron     299.9999922 magnetization 
 augmentation part        1.4750440 magnetization 

 Broyden mixing:
  rms(total) = 0.13520E+00    rms(broyden)= 0.13481E+00
  rms(prec ) = 0.14640E+00
  weight for this iteration     100.00

 eigenvalues of (default mixing * dielectric matrix)
  average eigenvalue GAMMA=   1.7458
  2.3015  1.1175  1.7822  1.7822

 Free energy of the ion-electron system (eV)
  ---------------------------------------------------
  alpha Z        PSCENC =       256.70245505
  Ewald energy   TEWEN  =     -9920.34864952
  -Hartree energ DENC   =     -3510.44320944
  -exchange      EXHF   =         0.00000000
  -V(xc)+E(xc)   XCENC  =       804.66709401
  PAW double counting   =     23009.05600979   -23368.17718460
  entropy T*S    EENTRO =        -0.00000000
  eigenvalues    EBANDS =     -3462.62714821
  atomic energy  EATOM  =     15932.49537490
  Solvation  Ediel_sol  =         0.00000000
  ---------------------------------------------------
  free energy    TOTEN  =      -258.67525802 eV

  energy without entropy =     -258.67525802  energy(sigma->0) =     -258.67525802


--------------------------------------------------------------------------------------------------------




--------------------------------------- Iteration      1(  17)  ---------------------------------------


    POTLOK:  cpu time    0.0684: real time    0.0684
    SETDIJ:  cpu time    0.0146: real time    0.0146
    EDDIAG:  cpu time    0.1820: real time    0.1818
  RMM-DIIS:  cpu time    1.0714: real time    1.0703
    ORTHCH:  cpu time    0.0337: real time    0.0336
       DOS:  cpu time    0.0009: real time    0.0009
    CHARGE:  cpu time    0.0410: real time    0.0410
    MIXING:  cpu time    0.0039: real time    0.0039
    --------------------------------------------
      LOOP:  cpu time    1.4158: real time    1.4145

 eigenvalue-minimisations  :   612
 total energy-change (2. order) :-0.8956420E-01  (-0.8606190E-01)
 number of electron     299.9999923 magnetization 
 augmentation part        1.3549825 magnetization 

 Broyden mixing:
  rms(total) = 0.54357E-01    rms(broyden)= 0.53939E-01
  rms(prec ) = 0.60828E-01
  weight for this iteration     100.00

 eigenvalues of (default mixing * dielectric matrix)
  average eigenvalue GAMMA=   1.8148
  2.5598  2.5598  0.9513  1.6525  1.3508

 Free energy of the ion-electron system (eV)
  ---------------------------------------------------
  alpha Z        PSCENC =       256.70245505
  Ewald energy   TEWEN  =     -9920.34864952
  -Hartree energ DENC   =     -3516.00289205
  -exchange      EXHF   =         0.00000000
  -V(xc)+E(xc)   XCENC  =       805.18719958
  PAW double counting   =     22905.59380213   -23265.00642006
  entropy T*S    EENTRO =        -0.00000000
  eigenvalues    EBANDS =     -3457.38569224
  atomic energy  EATOM  =     15932.49537490
  Solvation  Ediel_sol  =         0.00000000
  ---------------------------------------------------
  free energy    TOTEN  =      -258.76482221 eV

  energy without entropy =     -258.76482221  energy(sigma->0) =     -258.76482221


--------------------------------------------------------------------------------------------------------




--------------------------------------- Iteration      1(  18)  ---------------------------------------


    POTLOK:  cpu time    0.0685: real time    0.0686
    SETDIJ:  cpu time    0.0147: real time    0.0147
    EDDIAG:  cpu time    0.1840: real time    0.1838
  RMM-DIIS:  cpu time    1.0751: real time    1.0742
    ORTHCH:  cpu time    0.0286: real time    0.0285
       DOS:  cpu time    0.0009: real time    0.0009
    CHARGE:  cpu time    0.0411: real time    0.0412
    MIXING:  cpu time    0.0038: real time    0.0038
    --------------------------------------------
      LOOP:  cpu time    1.4169: real time    1.4157

 eigenvalue-minimisations  :   608
 total energy-change (2. order) :-0.5233763E-01  (-0.5216916E-01)
 number of electron     299.9999923 magnetization 
 augmentation part        1.2712067 magnetization 

 Broyden mixing:
  rms(total) = 0.15416E-01    rms(broyden)= 0.14591E-01
  rms(prec ) = 0.18238E-01
  weight for this iteration     100.00

 eigenvalues of (default mixing * dielectric matrix)
  average eigenvalue GAMMA=   1.7779
  2.7256  2.7256  1.6129  1.6129  1.0904  0.8997

 Free energy of the ion-electron system (eV)
  ---------------------------------------------------
  alpha Z        PSCENC =       256.70245505
  Ewald energy   TEWEN  =     -9920.34864952
  -Hartree energ DENC   =     -3520.41160217
  -exchange      EXHF   =         0.00000000
  -V(xc)+E(xc)   XCENC  =       805.55390387
  PAW double counting   =     22866.30980401   -23225.50388121
  entropy T*S    EENTRO =        -0.00000000
  eigenvalues    EBANDS =     -3453.61456477
  atomic energy  EATOM  =     15932.49537490
  Solvation  Ediel_sol  =         0.00000000
  ---------------------------------------------------
  free energy    TOTEN  =      -258.81715984 eV

  energy without entropy =     -258.81715984  energy(sigma->0) =     -258.81715984


--------------------------------------------------------------------------------------------------------




--------------------------------------- Iteration      1(  19)  ---------------------------------------


    POTLOK:  cpu time    0.0697: real time    0.0696
    SETDIJ:  cpu time    0.0146: real time    0.0146
    EDDIAG:  cpu time    0.1817: real time    0.1816
  RMM-DIIS:  cpu time    1.0915: real time    1.0905
    ORTHCH:  cpu time    0.0289: real time    0.0290
       DOS:  cpu time    0.0009: real time    0.0009
    CHARGE:  cpu time    0.0409: real time    0.0410
    MIXING:  cpu time    0.0041: real time    0.0041
    --------------------------------------------
      LOOP:  cpu time    1.4324: real time    1.4312

 eigenvalue-minimisations  :   621
 total energy-change (2. order) :-0.3666466E-01  (-0.3758692E-01)
 number of electron     299.9999923 magnetization 
 augmentation part        1.1937136 magnetization 

 Broyden mixing:
  rms(total) = 0.18698E-01    rms(broyden)= 0.18124E-01
  rms(prec ) = 0.19694E-01
  weight for this iteration     100.00

 eigenvalues of (default mixing * dielectric matrix)
  average eigenvalue GAMMA=   1.6133
  2.6340  2.6340  1.6002  1.6002  0.9339  1.1349  0.7554

 Free energy of the ion-electron system (eV)
  ---------------------------------------------------
  alpha Z        PSCENC =       256.70245505
  Ewald energy   TEWEN  =     -9920.34864952
  -Hartree energ DENC   =     -3522.02931728
  -exchange      EXHF   =         0.00000000
  -V(xc)+E(xc)   XCENC  =       805.66453594
  PAW double counting   =     22868.41538630   -23227.17629236
  entropy T*S    EENTRO =        -0.00000000
  eigenvalues    EBANDS =     -3452.57731753
  atomic energy  EATOM  =     15932.49537490
  Solvation  Ediel_sol  =         0.00000000
  ---------------------------------------------------
  free energy    TOTEN  =      -258.85382450 eV

  energy without entropy =     -258.85382450  energy(sigma->0) =     -258.85382450


--------------------------------------------------------------------------------------------------------




--------------------------------------- Iteration      1(  20)  ---------------------------------------


    POTLOK:  cpu time    0.0697: real time    0.0696
    SETDIJ:  cpu time    0.0149: real time    0.0149
    EDDIAG:  cpu time    0.1826: real time    0.1825
  RMM-DIIS:  cpu time    1.1272: real time    1.1262
    ORTHCH:  cpu time    0.0288: real time    0.0288
       DOS:  cpu time    0.0009: real time    0.0009
    CHARGE:  cpu time    0.0418: real time    0.0418
    MIXING:  cpu time    0.0044: real time    0.0044
    --------------------------------------------
      LOOP:  cpu time    1.4702: real time    1.4691

 eigenvalue-minimisations  :   637
 total energy-change (2. order) :-0.1596387E-01  (-0.1642940E-01)
 number of electron     299.9999923 magnetization 
 augmentation part        1.1503661 magnetization 

 Broyden mixing:
  rms(total) = 0.26938E-01    rms(broyden)= 0.26774E-01
  rms(prec ) = 0.29120E-01
  weight for this iteration     100.00

 eigenvalues of (default mixing * dielectric matrix)
  average eigenvalue GAMMA=   1.4862
  2.6881  2.6881  1.6462  1.6462  1.2068  0.9747  0.7181  0.3212

 Free energy of the ion-electron system (eV)
  ---------------------------------------------------
  alpha Z        PSCENC =       256.70245505
  Ewald energy   TEWEN  =     -9920.34864952
  -Hartree energ DENC   =     -3522.09777011
  -exchange      EXHF   =         0.00000000
  -V(xc)+E(xc)   XCENC  =       805.66926668
  PAW double counting   =     22868.64372667   -23227.36147426
  entropy T*S    EENTRO =        -0.00000000
  eigenvalues    EBANDS =     -3452.57271779
  atomic energy  EATOM  =     15932.49537490
  Solvation  Ediel_sol  =         0.00000000
  ---------------------------------------------------
  free energy    TOTEN  =      -258.86978837 eV

  energy without entropy =     -258.86978837  energy(sigma->0) =     -258.86978837


--------------------------------------------------------------------------------------------------------




--------------------------------------- Iteration      1(  21)  ---------------------------------------


    POTLOK:  cpu time    0.0692: real time    0.0692
    SETDIJ:  cpu time    0.0147: real time    0.0147
    EDDIAG:  cpu time    0.1815: real time    0.1814
  RMM-DIIS:  cpu time    1.1273: real time    1.1262
    ORTHCH:  cpu time    0.0294: real time    0.0294
       DOS:  cpu time    0.0009: real time    0.0009
    CHARGE:  cpu time    0.0505: real time    0.0504
    MIXING:  cpu time    0.0053: real time    0.0053
    --------------------------------------------
      LOOP:  cpu time    1.4788: real time    1.4774

 eigenvalue-minimisations  :   615
 total energy-change (2. order) :-0.9868149E-02  (-0.1079388E-01)
 number of electron     299.9999923 magnetization 
 augmentation part        1.1189566 magnetization 

 Broyden mixing:
  rms(total) = 0.37323E-01    rms(broyden)= 0.37258E-01
  rms(prec ) = 0.40777E-01
  weight for this iteration     100.00

 eigenvalues of (default mixing * dielectric matrix)
  average eigenvalue GAMMA=   1.4766
  2.9409  2.5936  1.6787  1.6787  1.1267  0.9518  0.9551  0.9551  0.4085

 Free energy of the ion-electron system (eV)
  ---------------------------------------------------
  alpha Z        PSCENC =       256.70245505
  Ewald energy   TEWEN  =     -9920.34864952
  -Hartree energ DENC   =     -3522.54754776
  -exchange      EXHF   =         0.00000000
  -V(xc)+E(xc)   XCENC  =       805.69325428
  PAW double counting   =     22871.25667313   -23229.89360237
  entropy T*S    EENTRO =        -0.00000000
  eigenvalues    EBANDS =     -3452.23761423
  atomic energy  EATOM  =     15932.49537490
  Solvation  Ediel_sol  =         0.00000000
  ---------------------------------------------------
  free energy    TOTEN  =      -258.87965652 eV

  energy without entropy =     -258.87965652  energy(sigma->0) =     -258.87965652


--------------------------------------------------------------------------------------------------------




--------------------------------------- Iteration      1(  22)  ---------------------------------------


    POTLOK:  cpu time    0.0807: real time    0.0807
    SETDIJ:  cpu time    0.0163: real time    0.0162
    EDDIAG:  cpu time    0.2042: real time    0.2041
  RMM-DIIS:  cpu time    1.2252: real time    1.2241
    ORTHCH:  cpu time    0.0314: real time    0.0314
       DOS:  cpu time    0.0008: real time    0.0008
    CHARGE:  cpu time    0.0469: real time    0.0469
    MIXING:  cpu time    0.0057: real time    0.0057
    --------------------------------------------
      LOOP:  cpu time    1.6112: real time    1.6099

 eigenvalue-minimisations  :   616
 total energy-change (2. order) :-0.5208085E-02  (-0.6710834E-02)
 number of electron     299.9999923 magnetization 
 augmentation part        1.0944647 magnetization 

 Broyden mixing:
  rms(total) = 0.50004E-01    rms(broyden)= 0.49976E-01
  rms(prec ) = 0.54938E-01
  weight for this iteration     100.00

 eigenvalues of (default mixing * dielectric matrix)
  average eigenvalue GAMMA=   1.5313
  2.5571  2.5571  1.9460  1.9460  1.3736  1.3736  1.2268  0.9244  0.9244  0.4839

 Free energy of the ion-electron system (eV)
  ---------------------------------------------------
  alpha Z        PSCENC =       256.70245505
  Ewald energy   TEWEN  =     -9920.34864952
  -Hartree energ DENC   =     -3522.49782361
  -exchange      EXHF   =         0.00000000
  -V(xc)+E(xc)   XCENC  =       805.68597567
  PAW double counting   =     22874.65260921   -23233.44092236
  entropy T*S    EENTRO =        -0.00000000
  eigenvalues    EBANDS =     -3452.13388394
  atomic energy  EATOM  =     15932.49537490
  Solvation  Ediel_sol  =         0.00000000
  ---------------------------------------------------
  free energy    TOTEN  =      -258.88486461 eV

  energy without entropy =     -258.88486461  energy(sigma->0) =     -258.88486461


--------------------------------------------------------------------------------------------------------




--------------------------------------- Iteration      1(  23)  ---------------------------------------


    POTLOK:  cpu time    0.0722: real time    0.0723
    SETDIJ:  cpu time    0.0151: real time    0.0150
    EDDIAG:  cpu time    0.2035: real time    0.2034
  RMM-DIIS:  cpu time    1.1169: real time    1.1159
    ORTHCH:  cpu time    0.0361: real time    0.0361
       DOS:  cpu time    0.0008: real time    0.0008
    CHARGE:  cpu time    0.0442: real time    0.0442
    MIXING:  cpu time    0.0059: real time    0.0059
    --------------------------------------------
      LOOP:  cpu time    1.4946: real time    1.4936

 eigenvalue-minimisations  :   623
 total energy-change (2. order) :-0.2193398E-02  (-0.4446553E-02)
 number of electron     299.9999923 magnetization 
 augmentation part        1.0798396 magnetization 

 Broyden mixing:
  rms(total) = 0.71784E-01    rms(broyden)= 0.71773E-01
  rms(prec ) = 0.79328E-01
  weight for this iteration     100.00

 eigenvalues of (default mixing * dielectric matrix)
  average eigenvalue GAMMA=   1.6215
  2.7659  2.7659  2.4625  2.4625  1.5075  1.5075  1.1174  1.1174  0.9363  0.6882
  0.5056

 Free energy of the ion-electron system (eV)
  ---------------------------------------------------
  alpha Z        PSCENC =       256.70245505
  Ewald energy   TEWEN  =     -9920.34864952
  -Hartree energ DENC   =     -3522.37132544
  -exchange      EXHF   =         0.00000000
  -V(xc)+E(xc)   XCENC  =       805.66328672
  PAW double counting   =     22880.13684283   -23239.29071565
  entropy T*S    EENTRO =        -0.00000000
  eigenvalues    EBANDS =     -3451.87432690
  atomic energy  EATOM  =     15932.49537490
  Solvation  Ediel_sol  =         0.00000000
  ---------------------------------------------------
  free energy    TOTEN  =      -258.88705800 eV

  energy without entropy =     -258.88705800  energy(sigma->0) =     -258.88705800


--------------------------------------------------------------------------------------------------------




--------------------------------------- Iteration      1(  24)  ---------------------------------------


    POTLOK:  cpu time    0.0719: real time    0.0719
    SETDIJ:  cpu time    0.0149: real time    0.0149
    EDDIAG:  cpu time    0.2036: real time    0.2034
  RMM-DIIS:  cpu time    1.1360: real time    1.1350
    ORTHCH:  cpu time    0.0263: real time    0.0263
       DOS:  cpu time    0.0010: real time    0.0010
    CHARGE:  cpu time    0.0406: real time    0.0406
    MIXING:  cpu time    0.0052: real time    0.0052
    --------------------------------------------
      LOOP:  cpu time    1.4995: real time    1.4984

 eigenvalue-minimisations  :   636
 total energy-change (2. order) : 0.8384086E-03  (-0.3764397E-02)
 number of electron     299.9999923 magnetization 
 augmentation part        1.0667997 magnetization 

 Broyden mixing:
  rms(total) = 0.10474E+00    rms(broyden)= 0.10473E+00
  rms(prec ) = 0.11583E+00
  weight for this iteration     100.00

 eigenvalues of (default mixing * dielectric matrix)
  average eigenvalue GAMMA=   1.5702
  1.4128  3.0130  2.6878  2.2674  2.2674  1.3926  1.3926  1.0998  1.0998  0.9306
  0.7563  0.5221

 Free energy of the ion-electron system (eV)
  ---------------------------------------------------
  alpha Z        PSCENC =       256.70245505
  Ewald energy   TEWEN  =     -9920.34864952
  -Hartree energ DENC   =     -3521.75690610
  -exchange      EXHF   =         0.00000000
  -V(xc)+E(xc)   XCENC  =       805.60465143
  PAW double counting   =     22871.32706900   -23231.25809447
  entropy T*S    EENTRO =        -0.00000000
  eigenvalues    EBANDS =     -3451.65211990
  atomic energy  EATOM  =     15932.49537490
  Solvation  Ediel_sol  =         0.00000000
  ---------------------------------------------------
  free energy    TOTEN  =      -258.88621960 eV

  energy without entropy =     -258.88621960  energy(sigma->0) =     -258.88621960


--------------------------------------------------------------------------------------------------------




--------------------------------------- Iteration      1(  25)  ---------------------------------------


    POTLOK:  cpu time    0.0698: real time    0.0697
    SETDIJ:  cpu time    0.0147: real time    0.0147
[...]
      direct lattice vectors                 reciprocal lattice vectors
    10.250000000  0.000000000  0.000000000     0.097560976  0.000000000  0.000000000
     0.000000000 10.250000000  0.000000000     0.000000000  0.097560976  0.000000000
     0.000000000  0.000000000 12.350000000     0.000000000  0.000000000  0.080971660

  length of vectors
    10.250000000 10.250000000 12.350000000     0.097560976  0.097560976  0.080971660


 FORCES acting on ions
    electron-ion (+dipol)            ewald-force                    non-local-force                 convergence-correction
 -----------------------------------------------------------------------------------------------
   0.532E+01 -.100E+01 0.144E+02   -.393E+01 0.125E+01 -.139E+02   -.201E+01 0.761E+00 -.112E+01   -.457E-03 0.754E-04 -.204E-03
   -.260E+01 -.246E+02 0.395E+02   0.331E+01 0.249E+02 -.391E+02   -.492E+00 -.474E+00 -.363E+00   0.611E-04 -.343E-04 -.548E-04
   -.768E+01 0.393E+02 0.450E+01   0.649E+01 -.391E+02 -.442E+01   0.149E+01 -.394E+00 0.151E+00   0.298E-04 -.135E-03 0.664E-04
   -.247E+01 -.377E+02 -.285E+01   0.172E+01 0.367E+02 0.333E+01   0.594E+00 0.119E+01 -.603E+00   0.215E-03 -.231E-03 -.558E-04
   0.264E+02 0.277E+02 -.144E+02   -.260E+02 -.267E+02 0.148E+02   -.685E+00 -.803E+00 -.360E+00   0.234E-03 -.739E-04 -.143E-03
   -.270E+02 -.232E+02 0.236E+02   0.254E+02 0.228E+02 -.235E+02   0.150E+01 0.429E+00 -.211E+00   0.162E-03 -.651E-04 -.152E-03
   0.151E+02 -.265E+01 -.341E+02   -.141E+02 0.329E+01 0.322E+02   -.800E+00 -.825E+00 0.191E+01   -.991E-04 -.319E-03 0.147E-03
   0.896E+01 0.180E+02 -.264E+02   -.879E+01 -.174E+02 0.272E+02   0.157E+00 -.103E+01 -.837E+00   0.459E-04 0.565E-04 -.113E-03
   0.172E+02 -.219E+01 0.359E+02   -.176E+02 0.170E+01 -.358E+02   0.364E+00 0.638E+00 -.114E+00   0.847E-04 0.903E-04 0.346E-03
   -.981E+01 -.304E+01 -.156E+02   0.892E+01 0.276E+01 0.150E+02   0.961E+00 0.258E+00 0.492E+00   -.220E-03 0.154E-03 0.303E-03
   -.106E+02 0.215E+02 0.849E+01   0.102E+02 -.201E+02 -.835E+01   0.377E+00 -.158E+01 0.264E-01   -.971E-04 -.743E-04 0.128E-03
   -.475E+01 -.168E+02 0.925E+00   0.420E+01 0.157E+02 -.125E+01   0.372E+00 0.779E+00 0.213E+00   0.408E-04 0.167E-03 0.798E-04
   -.329E+02 -.575E+01 0.241E+02   0.318E+02 0.536E+01 -.243E+02   0.194E+01 0.397E+00 0.898E-01   -.136E-03 -.993E-04 -.303E-03
   0.941E+00 0.904E+01 -.149E+01   -.168E+01 -.807E+01 0.186E+01   0.106E+01 -.923E+00 -.878E+00   -.116E-03 -.406E-04 -.343E-04
   0.161E+02 -.152E+02 -.710E+01   -.151E+02 0.146E+02 0.680E+01   -.726E+00 0.373E+00 0.500E+00   -.409E-03 0.601E-04 0.620E-04
   -.102E+02 0.114E+02 0.916E+01   0.101E+02 -.115E+02 -.773E+01   0.637E+00 0.789E+00 -.170E+01   -.129E-03 -.114E-03 -.554E-03
   0.221E+02 0.203E+02 0.376E+01   -.207E+02 -.192E+02 -.343E+01   -.107E+01 -.135E+01 -.616E+00   -.348E-03 0.183E-04 0.418E-04
   -.217E+02 0.776E+01 0.157E+02   0.209E+02 -.844E+01 -.154E+02   0.129E+01 0.701E+00 -.275E+00   0.287E-04 0.977E-04 -.217E-03
   0.260E+02 0.213E+02 0.403E+01   -.249E+02 -.202E+02 -.336E+01   -.152E+01 -.837E+00 -.824E+00   0.200E-03 -.264E-03 0.105E-03
   -.914E+01 -.238E+02 -.602E+01   0.878E+01 0.236E+02 0.556E+01   0.519E+00 0.481E+00 0.455E+00   -.183E-04 0.698E-04 -.201E-03
   0.124E+02 0.216E+01 -.287E+01   -.112E+02 -.154E+01 0.179E+01   -.110E+01 -.755E+00 0.107E+01   -.168E-03 0.805E-05 0.321E-03
   0.155E+02 -.437E+01 -.400E+01   -.158E+02 0.463E+01 0.337E+01   0.591E-01 -.355E+00 0.568E+00   0.169E-04 0.745E-04 -.821E-05
   -.696E+01 0.204E+02 -.333E+01   0.677E+01 -.201E+02 0.441E+01   -.149E+00 -.381E+00 -.854E+00   -.131E-03 -.864E-04 0.396E-04
   -.107E+02 0.400E+02 -.244E+02   0.959E+01 -.397E+02 0.237E+02   0.137E+01 -.631E+00 0.759E+00   0.238E-03 0.311E-04 0.162E-03
   -.767E+01 0.348E+02 -.110E+02   0.753E+01 -.345E+02 0.111E+02   0.199E+00 -.294E+00 -.330E+00   0.557E-05 0.112E-03 -.919E-04
   0.968E+01 -.113E+02 -.135E+00   -.854E+01 0.117E+02 -.331E-01   -.119E+01 -.397E+00 0.113E+00   0.896E-04 0.100E-03 0.212E-03
   -.214E+02 -.860E+00 -.497E+02   0.213E+02 0.965E+00 0.479E+02   0.211E+00 0.203E+00 0.201E+01   -.271E-03 0.477E-04 0.926E-04
   -.777E+01 0.361E+02 0.257E+02   0.739E+01 -.363E+02 -.246E+02   -.133E+00 -.383E+00 -.125E+01   0.118E-03 0.785E-04 -.167E-03
   0.407E+01 0.190E+02 0.979E+01   -.503E+01 -.191E+02 -.914E+01   0.103E+01 0.999E-01 -.253E+00   0.335E-03 -.503E-04 0.288E-04
   -.191E+02 -.168E+02 -.220E+02   0.184E+02 0.177E+02 0.208E+02   0.647E+00 -.712E+00 0.125E+01   0.209E-03 -.223E-03 -.151E-03
   0.270E+01 -.389E+02 0.403E+02   -.936E+01 0.433E+02 -.493E+02   0.634E+01 -.377E+01 0.884E+01   0.119E-03 0.155E-03 -.573E-03
   -.457E+02 0.509E+02 0.105E+02   0.504E+02 -.633E+02 -.112E+02   -.506E+01 0.113E+02 0.245E+00   0.206E-03 -.133E-03 -.142E-03
   0.207E+02 -.488E+02 0.215E+00   -.272E+02 0.569E+02 -.189E+01   0.631E+01 -.852E+01 0.986E+00   -.287E-03 0.349E-03 0.190E-03
   -.210E+02 -.124E+02 -.213E+02   0.239E+02 0.681E+01 0.285E+02   -.296E+01 0.373E+01 -.690E+01   0.303E-03 -.323E-03 0.566E-03
   0.107E+02 0.793E+01 -.155E+02   -.854E+01 -.190E+02 0.185E+02   -.137E+01 0.109E+02 -.278E+01   0.847E-04 -.103E-02 0.390E-03
   0.813E+02 -.384E+02 0.286E+02   -.904E+02 0.397E+02 -.283E+02   0.987E+01 -.158E+01 -.498E-01   -.242E-03 -.529E-03 -.291E-03
   0.727E+02 0.259E+02 -.690E+02   -.735E+02 -.286E+02 0.733E+02   0.966E+00 0.271E+01 -.469E+01   0.731E-03 0.860E-04 0.115E-03
   0.195E+02 0.537E+02 -.246E+02   -.213E+02 -.579E+02 0.333E+02   0.197E+01 0.424E+01 -.944E+01   0.143E-03 -.784E-04 0.995E-04
   -.231E+01 -.920E+02 0.598E+02   0.183E+01 0.958E+02 -.609E+02   0.587E+00 -.228E+01 0.800E+00   0.523E-03 0.943E-03 0.775E-03
   0.813E+02 -.715E+02 0.175E+02   -.837E+02 0.733E+02 -.166E+02   0.268E+01 -.149E+01 -.909E+00   -.202E-03 -.106E-03 0.112E-02
   -.868E+02 -.678E+01 0.579E+02   0.944E+02 0.960E+01 -.594E+02   -.707E+01 -.243E+01 0.145E+01   0.426E-03 0.511E-03 0.728E-04
   -.802E+02 -.224E+02 -.333E+02   0.835E+02 0.221E+02 0.339E+02   -.324E+01 0.111E+00 -.257E+00   0.581E-03 -.307E-03 -.102E-02
   -.298E+02 -.329E+02 -.425E+02   0.312E+02 0.357E+02 0.432E+02   -.951E+00 -.204E+01 -.341E+00   0.954E-03 0.373E-03 0.171E-04
   -.763E+02 -.543E+02 -.525E+02   0.824E+02 0.604E+02 0.547E+02   -.620E+01 -.617E+01 -.225E+01   -.225E-04 -.186E-04 0.310E-03
   0.139E+02 -.109E+02 0.587E+02   -.140E+02 0.127E+02 -.621E+02   -.309E+00 -.194E+01 0.431E+01   -.242E-03 0.335E-03 -.492E-03
   0.315E+02 -.115E+02 -.294E+01   -.309E+02 0.107E+02 0.241E+01   -.101E+01 0.181E+01 0.856E+00   -.331E-03 0.527E-03 0.792E-03
   0.327E+01 -.910E+02 -.364E+02   -.452E+01 0.978E+02 0.396E+02   0.105E+01 -.502E+01 -.220E+01   -.337E-03 0.822E-03 0.457E-03
   -.202E+02 0.862E+02 0.456E+02   0.204E+02 -.894E+02 -.467E+02   -.274E+00 0.405E+01 0.128E+01   -.230E-03 -.476E-03 -.236E-03
   0.294E+02 -.771E+02 0.382E+02   -.301E+02 0.788E+02 -.414E+02   0.474E+00 -.171E+01 0.258E+01   -.297E-03 -.926E-03 -.102E-02
   0.297E+02 0.143E+03 -.877E+02   -.322E+02 -.149E+03 0.900E+02   0.264E+01 0.529E+01 -.205E+01   0.537E-04 0.137E-03 0.244E-03
   -.295E+02 0.487E+02 -.192E+02   0.297E+02 -.485E+02 0.191E+02   -.588E+00 -.588E+00 0.170E+00   -.297E-03 -.226E-03 -.694E-03
   0.466E+02 0.597E+02 0.299E+02   -.538E+02 -.636E+02 -.301E+02   0.678E+01 0.351E+01 0.637E+00   -.771E-03 -.997E-04 0.370E-03
   0.394E+02 0.276E+02 -.268E+02   -.397E+02 -.274E+02 0.272E+02   0.233E+00 -.476E+00 -.454E+00   0.143E-03 -.375E-03 -.595E-03
   -.299E+02 -.148E+02 -.836E+01   0.296E+02 0.155E+02 0.832E+01   0.881E+00 -.125E+01 0.341E+00   -.598E-03 -.759E-03 0.306E-03
   0.164E+01 0.360E+02 0.379E+02   -.441E+00 -.424E+02 -.426E+02   -.159E+01 0.503E+01 0.393E+01   0.352E-03 -.737E-03 -.612E-03
   -.711E+00 -.988E+02 -.259E+02   0.112E+01 0.104E+03 0.274E+02   -.220E+00 -.447E+01 -.131E+01   0.272E-03 -.211E-04 0.652E-03
   -.136E+01 -.549E+02 0.135E+02   0.587E+01 0.590E+02 -.141E+02   -.484E+01 -.416E+01 -.745E-01   0.562E-03 -.475E-03 -.764E-04
   -.449E+02 0.225E+02 0.101E+03   0.484E+02 -.244E+02 -.104E+03   -.388E+01 0.237E+01 0.430E+01   0.210E-03 0.242E-03 0.280E-03
   0.511E+02 0.471E+02 0.500E+02   -.522E+02 -.505E+02 -.605E+02   0.787E+00 0.223E+01 0.106E+02   0.189E-03 -.432E-04 -.156E-03
   0.267E+02 0.827E+02 -.210E+02   -.267E+02 -.860E+02 0.230E+02   -.100E+00 0.281E+01 -.193E+01   0.747E-04 -.783E-03 0.536E-03
   0.232E+02 -.311E+02 0.188E+02   -.232E+02 0.311E+02 -.188E+02   -.520E+00 0.132E+00 -.429E-02   0.169E-03 -.107E-03 0.267E-04
   0.855E+01 -.161E+02 -.314E+02   -.903E+01 0.165E+02 0.320E+02   0.567E+00 -.101E+00 -.626E+00   0.454E-04 -.137E-03 -.504E-03
   0.202E+02 -.187E+02 -.356E+02   -.204E+02 0.193E+02 0.363E+02   -.163E-01 -.673E+00 -.660E+00   -.481E-04 -.171E-03 -.432E-03
   -.102E+03 0.725E+02 -.205E+02   0.103E+03 -.728E+02 0.204E+02   -.193E+01 0.105E+00 -.510E-01   -.108E-02 0.613E-03 0.113E-03
   -.159E+02 -.672E+02 -.316E+02   0.163E+02 0.674E+02 0.315E+02   -.365E+00 -.277E+00 0.101E+00   -.447E-03 -.281E-03 -.168E-03
 -----------------------------------------------------------------------------------------------
   -.456E+01 -.634E+01 -.349E+01   0.146E-12 -.142E-13 0.782E-13   0.455E+01 0.634E+01 0.349E+01   0.220E-03 -.361E-02 0.103E-03
 
 
 POSITION                                       TOTAL-FORCE (eV/Angst)
 -----------------------------------------------------------------------------------
      6.43490      9.16607      0.05659        -0.613147      1.013922     -0.594627
      7.50272      5.83961      7.55697         0.217967     -0.146870      0.113421
      2.35744      1.78470      0.35551         0.306320     -0.198429      0.227055
      1.57240      7.44374      2.54285        -0.157231      0.187577     -0.121269
      3.05985      2.13240      4.00536        -0.206003      0.113643     -0.034367
      2.04563      0.49298      8.17910        -0.120370      0.017995     -0.084750
      7.52496      5.73020      2.65805         0.135731     -0.187566      0.063831
      5.23969      0.73614      3.72018         0.331269     -0.389668     -0.013531
     10.07110      9.55989      7.17212        -0.096829      0.147911     -0.062030
      9.62207      4.12468      2.80985         0.068975     -0.019903     -0.105196
      4.42925      9.90246      6.49470        -0.054840     -0.146729      0.167237
      9.12767      6.02097      0.10520        -0.176276     -0.272824     -0.107842
      0.14663      3.73071      9.06733         0.909666      0.003762     -0.118625
      3.03382      5.35808      7.40191         0.316030      0.049260     -0.515236
      6.32665      2.35396     12.17890         0.346051     -0.265010      0.199621
      8.73313      1.91514     10.22400         0.546361      0.648744     -0.269813
      6.39473      5.53503     12.21910         0.298755     -0.307762     -0.279232
      4.74883      4.14004      5.33964         0.536437      0.022001      0.080066
      4.87989      6.77151      1.82201        -0.439109      0.229815     -0.153902
      2.11164      7.67825     10.69560         0.158493      0.219877     -0.006372
      7.14748      2.46159      2.70757         0.116552     -0.138879     -0.001617
      9.94247      7.14998      9.02390        -0.213656     -0.098738     -0.056002
      0.19328      3.80608      5.62122        -0.342091     -0.045517      0.225363
      9.30265      2.12571      0.50123         0.306868     -0.373417      0.040318
      7.37415      1.38483      5.54814         0.060720      0.065317     -0.238844
      5.56370      6.48353      9.56997        -0.054313     -0.007686     -0.055500
      6.40366      8.41187      3.07432         0.059942      0.308362      0.268990
      7.21378      0.33445      9.53589        -0.512872     -0.569730     -0.134509
      6.15714      2.85427      7.60007         0.062519     -0.043301      0.391734
      9.02559      8.91725      0.46421        -0.129767      0.139573      0.125320
      2.97686      6.22565      4.17377        -0.331298      0.610246     -0.234118
      2.90554      4.81045     10.92800        -0.341368     -1.096838     -0.470332
      0.97570      4.43216     12.10220        -0.230107     -0.436768     -0.692225
      2.02279      7.30848      6.02550        -0.025505     -1.812383      0.326100
     10.11830      6.36646      5.61170         0.776839     -0.186713      0.235680
      3.77555      1.08131      9.94905         0.719984     -0.281101      0.239772
      3.93410      9.09825      2.71050         0.189001      0.090899     -0.439748
      4.45459      9.34890     10.23290         0.211829      0.028523     -0.726170
      2.03445      9.30025      5.93886         0.099748      1.508365     -0.318487
      8.81373      7.55272      6.73510         0.264785      0.288677      0.054794
      0.26503      2.00287      7.30672         0.506349      0.391017     -0.056002
      5.10098      6.31455      4.15166         0.015445     -0.188893      0.332914
      4.06111      6.32246     11.72600         0.384561      0.707318      0.375069
      1.83173      3.97985      1.69355        -0.049405     -0.073952      0.003723
      1.86455      5.70616      9.23770        -0.431787     -0.098217      0.853209
      7.94348      3.83492      0.98581        -0.486472      1.008860      0.322644
      7.89166      5.81430     10.08680        -0.194356      1.758790      0.985246
      0.79440      2.49727     11.14650        -0.107049      0.876024      0.172375
      9.73369      6.68466      3.59392        -0.237786      0.001185     -0.598603
      0.91035      2.19757      2.32117         0.201998      0.115227      0.223587
      8.04335      0.48250     11.77660        -0.354684     -0.418427      0.091917
      8.57867      1.25645      7.55579        -0.430216     -0.316012      0.467154
      4.95774      1.81674      5.72332        -0.074140     -0.276508     -0.012910
      7.05628      7.40981      1.08210         0.528640     -0.620266      0.306189
      8.22258      4.09477      9.10164        -0.397268     -1.402515     -0.760993
      4.68606      1.90170      1.74173         0.190809      1.125976      0.206926
      5.50015      2.26816      9.94777        -0.337003     -0.061510     -0.645025
      5.61471      8.74279      8.51808        -0.397503      0.524105      0.602754
      4.22330      0.08069      0.98694        -0.287305     -1.169628      0.141879
      2.49180      4.40653      5.09037        -0.075540     -0.496271      0.112316
      5.37770      5.08905      7.52539        -0.489555      0.119298     -0.022535
      8.13502      3.51470      4.64665         0.089658      0.206626     -0.031469
      0.80871      9.22337      9.38447        -0.217467     -0.085375      0.131762
      7.65242      0.22966      3.55265        -0.406725     -0.214041     -0.141285
      0.71652      7.76408      0.34475         0.060739     -0.081447      0.014198
 -----------------------------------------------------------------------------------
    total drift:                               -0.007912      0.000142      0.006659


--------------------------------------------------------------------------------------------------------



  FREE ENERGIE OF THE ION-ELECTRON SYSTEM (eV)
  ---------------------------------------------------
  free  energy   TOTEN  =      -258.89449956 eV

  energy  without entropy=     -258.89449956  energy(sigma->0) =     -258.89449956
 


--------------------------------------------------------------------------------------------------------


    POTLOK:  cpu time    0.0954: real time    0.0956


--------------------------------------------------------------------------------------------------------




--------------------------------------------------------------------------------------------------------


     LOOP+:  cpu time   56.0866: real time   56.1163
    4ORBIT:  cpu time    0.0000: real time    0.0000
 


 total charge     
 
# of ion       s       p       d       tot
------------------------------------------
    1        2.028   0.065   0.000   2.093
    2        2.020   0.056   0.000   2.075
    3        2.013   0.046   0.000   2.059
    4        2.014   0.043   0.000   2.057
    5        2.008   0.034   0.000   2.042
    6        2.014   0.045   0.000   2.060
    7        2.015   0.047   0.000   2.062
    8        2.026   0.065   0.000   2.091
    9        2.016   0.047   0.000   2.063
   10        2.014   0.048   0.000   2.062
   11        2.015   0.042   0.000   2.057
   12        2.011   0.040   0.000   2.051
   13        2.025   0.062   0.000   2.087
   14        2.023   0.058   0.000   2.081
   15        2.017   0.050   0.000   2.067
   16        2.024   0.060   0.000   2.084
   17        2.019   0.054   0.000   2.073
   18        2.021   0.057   0.000   2.078
   19        2.018   0.054   0.000   2.072
   20        2.011   0.042   0.000   2.053
   21        2.017   0.049   0.000   2.066
   22        2.011   0.040   0.000   2.051
   23        2.015   0.046   0.000   2.061
   24        2.026   0.066   0.000   2.091
   25        2.021   0.056   0.000   2.078
   26        2.014   0.045   0.000   2.059
   27        2.016   0.048   0.000   2.065
   28        2.018   0.048   0.000   2.066
   29        2.013   0.044   0.000   2.058
   30        2.020   0.050   0.000   2.070
   31        1.066   1.344   0.000   2.410
   32        1.102   1.311   0.000   2.413
   33        1.092   1.322   0.000   2.414
   34        1.066   1.390   0.000   2.456
   35        1.064   1.347   0.000   2.412
   36        1.361   2.258   0.000   3.620
   37        1.353   2.331   0.000   3.684
   38        1.370   2.239   0.000   3.609
   39        1.333   2.436   0.000   3.770
   40        1.335   2.429   0.000   3.764
   41        1.328   2.384   0.000   3.712
   42        1.334   2.408   0.000   3.741
   43        1.332   2.433   0.000   3.765
   44        1.360   2.308   0.000   3.668
   45        1.333   2.428   0.000   3.761
   46        1.309   2.476   0.000   3.784
   47        1.325   2.410   0.000   3.735
   48        1.340   2.405   0.000   3.746
   49        1.333   2.415   0.000   3.748
   50        1.348   2.345   0.000   3.693
   51        1.305   2.508   0.000   3.813
   52        1.326   2.392   0.000   3.718
   53        1.306   2.477   0.000   3.784
   54        1.306   2.526   0.000   3.832
   55        1.336   2.418   0.000   3.754
   56        1.339   2.405   0.000   3.744
   57        1.351   2.348   0.000   3.699
   58        1.347   2.326   0.000   3.674
   59        1.357   2.283   0.000   3.640
   60        1.330   2.450   0.000   3.780
   61        1.589   3.610   0.000   5.199
   62        1.591   3.573   0.000   5.164
   63        1.589   3.591   0.000   5.180
   64        1.590   3.572   0.000   5.162
   65        1.589   3.587   0.000   5.177
--------------------------------------------------
tot        107.261  85.994   0.000 193.255
 

 total amount of memory used by VASP MPI-rank0    42204. kBytes
=======================================================================

   base      :      30000. kBytes
   nonl-proj :       5360. kBytes
   fftplans  :       1886. kBytes
   grid      :       3386. kBytes
   one-center:         27. kBytes
   wavefun   :       1545. kBytes
 
  
  
 General timing and accounting informations for this job:
 ========================================================
  
                  Total CPU time used (sec):       64.518
                            User time (sec):       60.275
                          System time (sec):        4.243
                         Elapsed time (sec):       65.589
  
                   Maximum memory used (kb):      157416.
                   Average memory used (kb):           0.
  
                          Minor page faults:        53310
                          Major page faults:            0
                 Voluntary context switches:         2842
