<?xml version="1.0" encoding="ISO-8859-1"?>
<modeling>
 <generator>
  <i name="program" type="string">vasp </i>
  <i name="version" type="string">5.4.4.18Apr17-6-g9f103f2a35  </i>
  <i name="subversion" type="string">(build Jan 22 2020 12:49:05) complex            parallel </i>
  <i name="platform" type="string">Bebop BDW IPS19.0.5 gcc9.2.0 </i>
  <i name="date" type="string">2022 09 29 </i>
  <i name="time" type="string">10:00:23 </i>
 </generator>
 <incar>
  <i type="string" name="SYSTEM"> LPSC</i>
  <i type="string" name="PREC">normal</i>
  <i type="int" name="IALGO">    48</i>
  <i type="int" name="ISPIN">     1</i>
  <i type="int" name="NELM">   100</i>
  <i type="int" name="IBRION">     2</i>
  <i name="EDIFF">      0.00000100</i>
  <i name="EDIFFG">     -0.01000000</i>
  <i type="int" name="NSW">     1</i>
  <i type="int" name="ISIF">     2</i>
  <i type="int" name="ISYM">     0</i>
  <i name="ENCUT">    500.00000000</i>
  <i type="int" name="ISMEAR">     0</i>
  <i name="SIGMA">      0.05000000</i>
  <i type="logical" name="LWAVE"> F  </i>
  <i type="logical" name="LCHARG"> F  </i>
  <i type="int" name="LORBIT">    11</i>
  <v type="int" name="KPOINT_BSE">    -1     0     0     0</v>
  <i type="int" name="NELM">   100</i>
 </incar>
 <structure name="primitive_cell" >
  <crystal>
   <varray name="basis" >
    <v>      10.25000000       0.00000000       0.00000000 </v>
    <v>       0.00000000      10.25000000       0.00000000 </v>
    <v>       0.00000000       0.00000000      12.35000000 </v>
   </varray>
   <i name="volume">   1297.52187500 </i>
   <varray name="rec_basis" >
    <v>       0.09756098       0.00000000       0.00000000 </v>
    <v>       0.00000000       0.09756098       0.00000000 </v>
    <v>       0.00000000       0.00000000       0.08097166 </v>
   </varray>
  </crystal>
  <varray name="positions" >
   <v>      -0.37220488      -0.10574927       0.00458215 </v>
   <v>      -0.31158244      -0.27709171       0.08761943 </v>
   <v>      -0.21528293       0.04707307      -0.04642915 </v>
   <v>      -0.11945463      -0.13002439       0.03758777 </v>
   <v>       0.41202927       0.00787192       0.07991401 </v>
   <v>       0.43459415      -0.08791220      -0.17142510 </v>
   <v>      -0.37525268      -0.17932976       0.24893279 </v>
   <v>      -0.29621659       0.03262937      -0.22786316 </v>
   <v>       0.47608683      -0.33936488       0.14753117 </v>
   <v>      -0.38276585       0.22965463      -0.01385425 </v>
   <v>      -0.37612390      -0.45999707      -0.01059919 </v>
   <v>       0.38381463      -0.11236585       0.21947368 </v>
   <v>       0.39620585      -0.38317463      -0.05052632 </v>
   <v>       0.45717659       0.18553171       0.14103077 </v>
   <v>      -0.25342244       0.02240556       0.28766397 </v>
   <v>      -0.45222341      -0.14704488      -0.31027692 </v>
   <v>      -0.45720000      -0.36746049      -0.22510364 </v>
   <v>      -0.10949561      -0.41258829       0.00851806 </v>
   <v>       0.36834634       0.10549366      -0.19440891 </v>
   <v>      -0.46340000       0.22128390      -0.19451255 </v>
   <v>      -0.48881073       0.07181824       0.30122915 </v>
   <v>      -0.09242439       0.20738634       0.04058575 </v>
   <v>      -0.23008195      -0.43275122      -0.18325506 </v>
   <v>      -0.14798732       0.18684293      -0.17214575 </v>
   <v>      -0.26585756      -0.44095610       0.21522672 </v>
   <v>      -0.30268488       0.24015512       0.21923644 </v>
   <v>       0.06990478      -0.24252878       0.02791506 </v>
   <v>       0.20601366      -0.25090244      -0.13395951 </v>
   <v>       0.22999415       0.17411707       0.02878632 </v>
   <v>       0.49765659      -0.38394634       0.33616680 </v>
   <v>      -0.22502634       0.37413854       0.07982275 </v>
   <v>      -0.03000293      -0.30244098      -0.26931984 </v>
   <v>      -0.05037171      -0.34783805       0.29100567 </v>
   <v>       0.07889893      -0.10015902      -0.24012389 </v>
   <v>       0.15340488      -0.27378146       0.20589879 </v>
   <v>      -0.16305659       0.12258049      -0.38819514 </v>
   <v>       0.28346732       0.46931220      -0.11514170 </v>
   <v>       0.07750254       0.24363610      -0.09744939 </v>
   <v>      -0.26802732      -0.43028195      -0.38809960 </v>
   <v>      -0.28057073       0.13510537       0.44924211 </v>
   <v>       0.29852195       0.20803902       0.32432065 </v>
   <v>       0.29042537      -0.39261951       0.33795709 </v>
   <v>       0.08881473       0.21439707       0.18794899 </v>
   <v>      -0.39930341       0.27846537      -0.38460972 </v>
   <v>       0.43212195      -0.03390634      -0.47411336 </v>
   <v>       0.19957366       0.04809532      -0.33772470 </v>
   <v>      -0.19779707       0.39948976      -0.26302510 </v>
   <v>      -0.14012390      -0.26314927      -0.45464777 </v>
   <v>      -0.01745366      -0.06732780      -0.41926154 </v>
   <v>      -0.47534634       0.49649268      -0.39065668 </v>
   <v>       0.48368195       0.17724293       0.46342672 </v>
   <v>       0.18190732      -0.44330146      -0.25200810 </v>
   <v>      -0.06126146       0.40240780       0.22751822 </v>
   <v>      -0.20633951       0.34289756       0.37624696 </v>
   <v>       0.09519063       0.43240585      -0.02006478 </v>
   <v>       0.17870537       0.38827805       0.13712955 </v>
   <v>       0.01430546       0.36397171      -0.26580324 </v>
   <v>       0.29598244      -0.47726049      -0.40065506 </v>
   <v>       0.02585688       0.19540195      -0.40836275 </v>
   <v>      -0.01284878      -0.37888195       0.45438866 </v>
   <v>       0.19848293      -0.09265854       0.48087935 </v>
   <v>       0.46330049       0.40390634       0.43235951 </v>
   <v>       0.19734537      -0.28697756       0.48789474 </v>
   <v>       0.24310244       0.42990537       0.41217571 </v>
   <v>       0.01885629       0.37132488       0.45515951 </v>
  </varray>
 </structure>
 <varray name="primitive_index" >
  <v type="int" >        1 </v>
  <v type="int" >       54 </v>
  <v type="int" >       51 </v>
  <v type="int" >       30 </v>
  <v type="int" >       59 </v>
  <v type="int" >       38 </v>
  <v type="int" >       27 </v>
  <v type="int" >       28 </v>
  <v type="int" >       19 </v>
  <v type="int" >       15 </v>
  <v type="int" >       17 </v>
  <v type="int" >       37 </v>
  <v type="int" >       43 </v>
  <v type="int" >       56 </v>
  <v type="int" >       64 </v>
  <v type="int" >       58 </v>
  <v type="int" >       26 </v>
  <v type="int" >       12 </v>
  <v type="int" >       36 </v>
  <v type="int" >       57 </v>
  <v type="int" >        8 </v>
  <v type="int" >       24 </v>
  <v type="int" >       47 </v>
  <v type="int" >       16 </v>
  <v type="int" >        7 </v>
  <v type="int" >       21 </v>
  <v type="int" >       65 </v>
  <v type="int" >       20 </v>
  <v type="int" >        3 </v>
  <v type="int" >       42 </v>
  <v type="int" >       46 </v>
  <v type="int" >       22 </v>
  <v type="int" >       49 </v>
  <v type="int" >       63 </v>
  <v type="int" >        4 </v>
  <v type="int" >       52 </v>
  <v type="int" >       32 </v>
  <v type="int" >       48 </v>
  <v type="int" >        2 </v>
  <v type="int" >       25 </v>
  <v type="int" >        5 </v>
  <v type="int" >       31 </v>
  <v type="int" >       50 </v>
  <v type="int" >       29 </v>
  <v type="int" >       11 </v>
  <v type="int" >        6 </v>
  <v type="int" >       55 </v>
  <v type="int" >       40 </v>
  <v type="int" >        9 </v>
  <v type="int" >       61 </v>
  <v type="int" >       53 </v>
  <v type="int" >       45 </v>
  <v type="int" >       10 </v>
  <v type="int" >       62 </v>
  <v type="int" >       33 </v>
  <v type="int" >       44 </v>
  <v type="int" >       13 </v>
  <v type="int" >       14 </v>
  <v type="int" >       41 </v>
  <v type="int" >       35 </v>
  <v type="int" >       39 </v>
  <v type="int" >       18 </v>
  <v type="int" >       34 </v>
  <v type="int" >       60 </v>
  <v type="int" >       23 </v>
 </varray>
 <kpoints>
  <generation param="Gamma">
   <v type="int" name="divisions">       1        1        1 </v>
   <v name="usershift">      0.00000000       0.00000000       0.00000000 </v>
   <v name="genvec1">      1.00000000       0.00000000       0.00000000 </v>
   <v name="genvec2">      0.00000000       1.00000000       0.00000000 </v>
   <v name="genvec3">      0.00000000       0.00000000       1.00000000 </v>
   <v name="shift">      0.00000000       0.00000000       0.00000000 </v>
  </generation>
  <varray name="kpointlist" >
   <v>       0.00000000       0.00000000       0.00000000 </v>
  </varray>
  <varray name="weights" >
   <v>       1.00000000 </v>
  </varray>
 </kpoints>
 <parameters>
  <separator name="general" >
   <i type="string" name="SYSTEM">LPSC</i>
   <i type="logical" name="LCOMPAT"> F  </i>
  </separator>
  <separator name="electronic" >
   <i type="string" name="PREC">normal</i>
   <i name="ENMAX">    500.00000000</i>
   <i name="ENAUG">    628.94500000</i>
   <i name="EDIFF">      0.00000100</i>
   <i type="int" name="IALGO">    48</i>
   <i type="int" name="IWAVPR">    11</i>
   <i type="int" name="NBANDS">   184</i>
   <i name="NELECT">    300.00000000</i>
   <i type="int" name="TURBO">     0</i>
   <i type="int" name="IRESTART">     0</i>
   <i type="int" name="NREBOOT">     0</i>
   <i type="int" name="NMIN">     0</i>
   <i name="EREF">      0.00000000</i>
   <separator name="electronic smearing" >
    <i type="int" name="ISMEAR">     0</i>
    <i name="SIGMA">      0.05000000</i>
    <i name="KSPACING">      0.50000000</i>
    <i type="logical" name="KGAMMA"> T  </i>
   </separator>
   <separator name="electronic projectors" >
    <i type="logical" name="LREAL"> F  </i>
    <v name="ROPT">      0.00000000      0.00000000      0.00000000      0.00000000</v>
    <i type="int" name="LMAXPAW">  -100</i>
    <i type="int" name="LMAXMIX">     2</i>
    <i type="logical" name="NLSPLINE"> F  </i>
   </separator>
   <separator name="electronic startup" >
    <i type="int" name="ISTART">     0</i>
    <i type="int" name="ICHARG">     2</i>
    <i type="int" name="INIWAV">     1</i>
   </separator>
   <separator name="electronic spin" >
    <i type="int" name="ISPIN">     1</i>
    <i type="logical" name="LNONCOLLINEAR"> F  </i>
    <v name="MAGMOM">      1.00000000      1.00000000      1.00000000      1.00000000      1.00000000      1.00000000      1.00000000      1.00000000      1.00000000      1.00000000      1.00000000      1.00000000      1.00000000      1.00000000      1.00000000      1.00000000      1.00000000      1.00000000      1.00000000      1.00000000
      1.00000000      1.00000000      1.00000000      1.00000000      1.00000000      1.00000000      1.00000000      1.00000000      1.00000000      1.00000000      1.00000000      1.00000000      1.00000000      1.00000000      1.00000000      1.00000000      1.00000000      1.00000000      1.00000000      1.00000000
      1.00000000      1.00000000      1.00000000      1.00000000      1.00000000      1.00000000      1.00000000      1.00000000      1.00000000      1.00000000      1.00000000      1.00000000      1.00000000      1.00000000      1.00000000      1.00000000      1.00000000      1.00000000      1.00000000      1.00000000
      1.00000000      1.00000000      1.00000000      1.00000000      1.00000000</v>
    <i name="NUPDOWN">     -1.00000000</i>
    <i type="logical" name="LSORBIT"> F  </i>
    <v name="SAXIS">      0.00000000      0.00000000      1.00000000</v>
    <i type="logical" name="LSPIRAL"> F  </i>
    <v name="QSPIRAL">      0.00000000      0.00000000      0.00000000</v>
    <i type="logical" name="LZEROZ"> F  </i>
   </separator>
   <separator name="electronic exchange-correlation" >
    <i type="logical" name="LASPH"> F  </i>
    <i type="logical" name="LMETAGGA"> F  </i>
   </separator>
   <separator name="electronic convergence" >
    <i type="int" name="NELM">   100</i>
    <i type="int" name="NELMDL">   -12</i>
    <i type="int" name="NELMIN">     2</i>
    <i name="ENINI">    500.00000000</i>
    <separator name="electronic convergence detail" >
     <i type="logical" name="LDIAG"> T  </i>
     <i type="logical" name="LSUBROT"> F  </i>
     <i name="WEIMIN">      0.00100000</i>
     <i name="EBREAK">      0.00000000</i>
     <i name="DEPER">      0.30000000</i>
     <i type="int" name="NRMM">     4</i>
     <i name="TIME">      0.40000000</i>
    </separator>
   </separator>
   <separator name="electronic mixer" >
    <i name="AMIX">      0.40000000</i>
    <i name="BMIX">      1.00000000</i>
    <i name="AMIN">      0.10000000</i>
    <i name="AMIX_MAG">      1.60000000</i>
    <i name="BMIX_MAG">      1.00000000</i>
    <separator name="electronic mixer details" >
     <i type="int" name="IMIX">     4</i>
     <i type="logical" name="MIXFIRST"> F  </i>
     <i type="int" name="MAXMIX">   -45</i>
     <i name="WC">    100.00000000</i>
     <i type="int" name="INIMIX">     1</i>
     <i type="int" name="MIXPRE">     1</i>
     <i type="int" name="MREMOVE">     5</i>
    </separator>
   </separator>
   <separator name="electronic dipolcorrection" >
    <i type="logical" name="LDIPOL"> F  </i>
    <i type="logical" name="LMONO"> F  </i>
    <i type="int" name="IDIPOL">     0</i>
    <i name="EPSILON">      1.00000000</i>
    <v name="DIPOL">   -100.00000000   -100.00000000   -100.00000000</v>
    <i name="EFIELD">      0.00000000</i>
   </separator>
  </separator>
  <separator name="grids" >
   <i type="int" name="NGX">    56</i>
   <i type="int" name="NGY">    56</i>
   <i type="int" name="NGZ">    70</i>
   <i type="int" name="NGXF">   112</i>
   <i type="int" name="NGYF">   112</i>
   <i type="int" name="NGZF">   140</i>
   <i type="logical" name="ADDGRID"> F  </i>
  </separator>
  <separator name="ionic" >
   <i type="int" name="NSW">     1</i>
   <i type="int" name="IBRION">     2</i>
   <i type="int" name="MDALGO">     0</i>
   <i type="int" name="ISIF">     2</i>
   <i name="PSTRESS">      0.00000000</i>
   <i name="EDIFFG">     -0.01000000</i>
   <i type="int" name="NFREE">     1</i>
   <i name="POTIM">      0.50000000</i>
   <i name="SMASS">     -3.00000000</i>
   <i name="SCALEE">      1.00000000</i>
  </separator>
  <separator name="ionic md" >
   <i name="TEBEG">      0.00010000</i>
   <i name="TEEND">      0.00010000</i>
   <i type="int" name="NBLOCK">     1</i>
   <i type="int" name="KBLOCK">     1</i>
   <i type="int" name="NPACO">   256</i>
   <i name="APACO">     16.00000000</i>
  </separator>
  <separator name="symmetry" >
   <i type="int" name="ISYM">     0</i>
   <i name="SYMPREC">      0.00001000</i>
  </separator>
  <separator name="dos" >
   <i type="int" name="LORBIT">    11</i>
   <v name="RWIGS">     -1.00000000     -1.00000000     -1.00000000     -1.00000000</v>
   <i type="int" name="NEDOS">   301</i>
   <i name="EMIN">     10.00000000</i>
   <i name="EMAX">    -10.00000000</i>
   <i name="EFERMI">      0.00000000</i>
  </separator>
  <separator name="writing" >
   <i type="int" name="NWRITE">     2</i>
   <i type="logical" name="LWAVE"> F  </i>
   <i type="logical" name="LDOWNSAMPLE"> F  </i>
   <i type="logical" name="LCHARG"> F  </i>
   <i type="logical" name="LPARD"> F  </i>
   <i type="logical" name="LVTOT"> F  </i>
   <i type="logical" name="LVHAR"> F  </i>
   <i type="logical" name="LELF"> F  </i>
   <i type="logical" name="LOPTICS"> F  </i>
   <v name="STM">      0.00000000      0.00000000      0.00000000      0.00000000      0.00000000      0.00000000      0.00000000</v>
  </separator>
  <separator name="performance" >
   <i type="int" name="NPAR">     8</i>
   <i type="int" name="NSIM">     4</i>
   <i type="int" name="NBLK">    -1</i>
   <i type="logical" name="LPLANE"> T  </i>
   <i type="logical" name="LSCALAPACK"> T  </i>
   <i type="logical" name="LSCAAWARE"> F  </i>
   <i type="logical" name="LSCALU"> F  </i>
   <i type="logical" name="LASYNC"> F  </i>
   <i type="logical" name="LORBITALREAL"> F  </i>
  </separator>
  <separator name="miscellaneous" >
   <i type="int" name="IDIOT">     3</i>
   <i type="int" name="ISPECIAL">     0</i>
   <i type="logical" name="LMUSIC"> F  </i>
   <v name="POMASS">      7.01000000     30.97400000     32.06600000     35.45300000</v>
   <v name="DARWINR">      0.00000000      0.00000000      0.00000000      0.00000000</v>
   <v name="DARWINV">      1.00000000      1.00000000      1.00000000      1.00000000</v>
   <i type="logical" name="LCORR"> T  </i>
  </separator>
  <i type="logical" name="GGA_COMPAT"> T  </i>
  <i type="logical" name="LBERRY"> F  </i>
  <i type="int" name="ICORELEVEL">     0</i>
  <i type="logical" name="LDAU"> F  </i>
  <i type="int" name="I_CONSTRAINED_M">     0</i>
  <separator name="electronic exchange-correlation" >
   <i type="string" name="GGA">--</i>
   <i type="int" name="VOSKOWN">     0</i>
   <i type="logical" name="LHFCALC"> F  </i>
   <i type="string" name="PRECFOCK"></i>
   <i type="logical" name="LSYMGRAD"> F  </i>
   <i type="logical" name="LHFONE"> F  </i>
   <i type="logical" name="LRHFCALC"> F  </i>
   <i type="logical" name="LTHOMAS"> F  </i>
   <i type="logical" name="LMODELHF"> F  </i>
   <i name="ENCUT4O">     -1.00000000</i>
   <i type="int" name="EXXOEP">     0</i>
   <i type="int" name="FOURORBIT">     0</i>
   <i name="AEXX">      0.00000000</i>
   <i name="HFALPHA">      0.00000000</i>
   <i name="MCALPHA">      0.00000000</i>
   <i name="ALDAX">      1.00000000</i>
   <i name="AGGAX">      1.00000000</i>
   <i name="ALDAC">      1.00000000</i>
   <i name="AGGAC">      1.00000000</i>
   <i type="int" name="NKREDX">     1</i>
   <i type="int" name="NKREDY">     1</i>
   <i type="int" name="NKREDZ">     1</i>
   <i type="logical" name="SHIFTRED"> F  </i>
   <i type="logical" name="ODDONLY"> F  </i>
   <i type="logical" name="EVENONLY"> F  </i>
   <i type="int" name="LMAXFOCK">     0</i>
   <i type="int" name="NMAXFOCKAE">     0</i>
   <i type="logical" name="LFOCKAEDFT"> F  </i>
   <i name="HFSCREEN">      0.00000000</i>
   <i name="HFSCREENC">      0.00000000</i>
   <i type="int" name="NBANDSGWLOW">     0</i>
  </separator>
  <separator name="vdW DFT" >
   <i type="logical" name="LUSE_VDW"> F  </i>
   <i name="Zab_VDW">     -0.84910000</i>
   <i name="PARAM1">      0.12340000</i>
   <i name="PARAM2">      1.00000000</i>
   <i name="PARAM3">      0.00000000</i>
  </separator>
  <separator name="model GW" >
   <i type="int" name="MODEL_GW">     0</i>
   <i name="MODEL_EPS0">     11.97712500</i>
   <i name="MODEL_ALPHA">      1.00000000</i>
  </separator>
  <separator name="linear response parameters" >
   <i type="logical" name="LEPSILON"> F  </i>
   <i type="logical" name="LRPA"> F  </i>
   <i type="logical" name="LNABLA"> F  </i>
   <i type="logical" name="LVEL"> F  </i>
   <i type="int" name="KINTER">     0</i>
   <i name="CSHIFT">      0.10000000</i>
   <i name="OMEGAMAX">     -1.00000000</i>
   <i name="DEG_THRESHOLD">      0.00200000</i>
   <i name="RTIME">     -0.10000000</i>
   <i name="WPLASMAI">      0.00000000</i>
   <v name="DFIELD">      0.00000000      0.00000000      0.00000000</v>
   <v name="WPLASMA">      0.00000000      0.00000000      0.00000000      0.00000000      0.00000000      0.00000000      0.00000000      0.00000000      0.00000000</v>
  </separator>
  <separator name="orbital magnetization" >
   <i type="logical" name="NUCIND"> F  </i>
   <v name="MAGPOS">      0.00000000      0.00000000      0.00000000</v>
   <i type="logical" name="LNICSALL"> T  </i>
   <i type="logical" name="ORBITALMAG"> F  </i>
   <i type="logical" name="LMAGBLOCH"> F  </i>
   <i type="logical" name="LCHIMAG"> F  </i>
   <i type="logical" name="LGAUGE"> T  </i>
   <i type="int" name="MAGATOM">     0</i>
   <v name="MAGDIPOL">      0.00000000      0.00000000      0.00000000</v>
   <v name="AVECCONST">      0.00000000      0.00000000      0.00000000</v>
  </separator>
  <separator name="response functions" >
   <i type="logical" name="LADDER"> F  </i>
   <i type="logical" name="LRPAFORCE"> F  </i>
   <i type="logical" name="LFXC"> F  </i>
   <i type="logical" name="LHARTREE"> T  </i>
   <i type="int" name="IBSE">     0</i>
   <v type="int" name="KPOINT">    -1     0     0     0</v>
   <i type="logical" name="LTCTE"> F  </i>
   <i type="logical" name="LTETE"> F  </i>
   <i type="logical" name="LTRIPLET"> F  </i>
   <i type="logical" name="LFXCEPS"> F  </i>
   <i type="logical" name="LFXHEG"> F  </i>
   <i type="int" name="NATURALO">     2</i>
   <i type="logical" name="L2ORDER"> F  </i>
   <i type="logical" name="LMP2LT"> F  </i>
   <i type="logical" name="LUSEW"> F  </i>
   <i name="ENCUTGW">     -2.00000000</i>
   <i name="ENCUTGWSOFT">     -2.00000000</i>
   <i name="ENCUTLF">     -1.00000000</i>
   <i type="int" name="LMAXMP2">    -1</i>
   <i name="SCISSOR">      0.00000000</i>
   <i type="int" name="NOMEGA">     0</i>
   <i type="int" name="NOMEGAR">     0</i>
   <i type="int" name="NBANDSGW">    -1</i>
   <i type="int" name="NBANDSO">    -1</i>
   <i type="int" name="NBANDSV">    -1</i>
   <i type="int" name="NELM">   100</i>
   <i type="int" name="NELMHF">     1</i>
   <i type="int" name="DIM">     3</i>
   <i type="int" name="ANTIRES">     0</i>
   <i name="OMEGAMAX">    -30.00000000</i>
   <i name="OMEGAMIN">    -30.00000000</i>
   <i name="OMEGATL">   -200.00000000</i>
   <i type="int" name="OMEGAGRID">   140</i>
   <i name="CSHIFT">     -0.10000000</i>
   <i type="logical" name="SELFENERGY"> F  </i>
   <i type="logical" name="LSPECTRAL"> F  </i>
   <i type="logical" name="LSPECTRALGW"> F  </i>
   <i type="logical" name="LSINGLES"> F  </i>
   <i type="logical" name="LFERMIGW"> F  </i>
   <i type="logical" name="ODDONLYGW"> F  </i>
   <i type="logical" name="EVENONLYGW"> F  </i>
   <i type="int" name="NKREDLFX">     1</i>
   <i type="int" name="NKREDLFY">     1</i>
   <i type="int" name="NKREDLFZ">     1</i>
   <i type="int" name="MAXMEM">  2800</i>
   <i type="int" name="TELESCOPE">     0</i>
   <i type="int" name="TAUPAR">     1</i>
   <i type="int" name="OMEGAPAR">    -1</i>
   <i name="LAMBDA">      1.00000000</i>
  </separator>
  <separator name="External order field" >
   <i name="OFIELD_KAPPA">      0.00000000</i>
   <v name="OFIELD_K">      0.00000000      0.00000000      0.00000000</v>
   <i name="OFIELD_Q6_NEAR">      0.00000000</i>
   <i name="OFIELD_Q6_FAR">      0.00000000</i>
   <i name="OFIELD_A">      0.00000000</i>
  </separator>
 </parameters>
 <atominfo>
  <atoms>      65 </atoms>
  <types>       4 </types>
  <array name="atoms" >
   <dimension dim="1">ion</dimension>
   <field type="string">element</field>
   <field type="int">atomtype</field>
   <set>
    <rc><c>Li</c><c>   1</c></rc>
    <rc><c>Li</c><c>   1</c></rc>
    <rc><c>Li</c><c>   1</c></rc>
    <rc><c>Li</c><c>   1</c></rc>
    <rc><c>Li</c><c>   1</c></rc>
    <rc><c>Li</c><c>   1</c></rc>
    <rc><c>Li</c><c>   1</c></rc>
    <rc><c>Li</c><c>   1</c></rc>
    <rc><c>Li</c><c>   1</c></rc>
    <rc><c>Li</c><c>   1</c></rc>
    <rc><c>Li</c><c>   1</c></rc>
    <rc><c>Li</c><c>   1</c></rc>
    <rc><c>Li</c><c>   1</c></rc>
    <rc><c>Li</c><c>   1</c></rc>
    <rc><c>Li</c><c>   1</c></rc>
    <rc><c>Li</c><c>   1</c></rc>
    <rc><c>Li</c><c>   1</c></rc>
    <rc><c>Li</c><c>   1</c></rc>
    <rc><c>Li</c><c>   1</c></rc>
    <rc><c>Li</c><c>   1</c></rc>
    <rc><c>Li</c><c>   1</c></rc>
    <rc><c>Li</c><c>   1</c></rc>
    <rc><c>Li</c><c>   1</c></rc>
    <rc><c>Li</c><c>   1</c></rc>
    <rc><c>Li</c><c>   1</c></rc>
    <rc><c>Li</c><c>   1</c></rc>
    <rc><c>Li</c><c>   1</c></rc>
    <rc><c>Li</c><c>   1</c></rc>
    <rc><c>Li</c><c>   1</c></rc>
    <rc><c>Li</c><c>   1</c></rc>
    <rc><c>P </c><c>   2</c></rc>
    <rc><c>P </c><c>   2</c></rc>
    <rc><c>P </c><c>   2</c></rc>
    <rc><c>P </c><c>   2</c></rc>
    <rc><c>P </c><c>   2</c></rc>
    <rc><c>S </c><c>   3</c></rc>
    <rc><c>S </c><c>   3</c></rc>
    <rc><c>S </c><c>   3</c></rc>
    <rc><c>S </c><c>   3</c></rc>
    <rc><c>S </c><c>   3</c></rc>
    <rc><c>S </c><c>   3</c></rc>
    <rc><c>S </c><c>   3</c></rc>
    <rc><c>S </c><c>   3</c></rc>
    <rc><c>S </c><c>   3</c></rc>
    <rc><c>S </c><c>   3</c></rc>
    <rc><c>S </c><c>   3</c></rc>
    <rc><c>S </c><c>   3</c></rc>
    <rc><c>S </c><c>   3</c></rc>
    <rc><c>S </c><c>   3</c></rc>
    <rc><c>S </c><c>   3</c></rc>
    <rc><c>S </c><c>   3</c></rc>
    <rc><c>S </c><c>   3</c></rc>
    <rc><c>S </c><c>   3</c></rc>
    <rc><c>S </c><c>   3</c></rc>
    <rc><c>S </c><c>   3</c></rc>
    <rc><c>S </c><c>   3</c></rc>
    <rc><c>S </c><c>   3</c></rc>
    <rc><c>S </c><c>   3</c></rc>
    <rc><c>S </c><c>   3</c></rc>
    <rc><c>S </c><c>   3</c></rc>
    <rc><c>Cl</c><c>   4</c></rc>
    <rc><c>Cl</c><c>   4</c></rc>
    <rc><c>Cl</c><c>   4</c></rc>
    <rc><c>Cl</c><c>   4</c></rc>
    <rc><c>Cl</c><c>   4</c></rc>
   </set>
  </array>
  <array name="atomtypes" >
   <dimension dim="1">type</dimension>
   <field type="int">atomspertype</field>
   <field type="string">element</field>
   <field>mass</field>
   <field>valence</field>
   <field type="string">pseudopotential</field>
   <set>
    <rc><c>  30</c><c>Li</c><c>      7.01000000</c><c>      3.00000000</c><c>  PAW_PBE Li_sv 10Sep2004               </c></rc>
    <rc><c>   5</c><c>P </c><c>     30.97400000</c><c>      5.00000000</c><c>  PAW_PBE P 06Sep2000                   </c></rc>
    <rc><c>  25</c><c>S </c><c>     32.06600000</c><c>      6.00000000</c><c>  PAW_PBE S 06Sep2000                   </c></rc>
    <rc><c>   5</c><c>Cl</c><c>     35.45300000</c><c>      7.00000000</c><c>  PAW_PBE Cl 06Sep2000                  </c></rc>
   </set>
  </array>
 </atominfo>
 <structure name="initialpos" >
  <crystal>
   <varray name="basis" >
    <v>      10.25000000       0.00000000       0.00000000 </v>
    <v>       0.00000000      10.25000000       0.00000000 </v>
    <v>       0.00000000       0.00000000      12.35000000 </v>
   </varray>
   <i name="volume">   1297.52187500 </i>
   <varray name="rec_basis" >
    <v>       0.09756098       0.00000000       0.00000000 </v>
    <v>       0.00000000       0.09756098       0.00000000 </v>
    <v>       0.00000000       0.00000000       0.08097166 </v>
   </varray>
  </crystal>
  <varray name="positions" >
   <v>       0.62779512       0.89425073       0.00458215 </v>
   <v>       0.73197268       0.56971805       0.61190040 </v>
   <v>       0.22999415       0.17411707       0.02878632 </v>
   <v>       0.15340488       0.72621854       0.20589879 </v>
   <v>       0.29852195       0.20803902       0.32432065 </v>
   <v>       0.19957366       0.04809532       0.66227530 </v>
   <v>       0.73414244       0.55904390       0.21522672 </v>
   <v>       0.51118927       0.07181824       0.30122915 </v>
   <v>       0.98254634       0.93267220       0.58073846 </v>
   <v>       0.93873854       0.40240780       0.22751822 </v>
   <v>       0.43212195       0.96609366       0.52588664 </v>
   <v>       0.89050439       0.58741171       0.00851806 </v>
   <v>       0.01430546       0.36397171       0.73419676 </v>
   <v>       0.29598244       0.52273951       0.59934494 </v>
   <v>       0.61723415       0.22965463       0.98614575 </v>
   <v>       0.85201268       0.18684293       0.82785425 </v>
   <v>       0.62387610       0.54000293       0.98940081 </v>
   <v>       0.46330049       0.40390634       0.43235951 </v>
   <v>       0.47608683       0.66063512       0.14753117 </v>
   <v>       0.20601366       0.74909756       0.86604049 </v>
   <v>       0.69731512       0.24015512       0.21923644 </v>
   <v>       0.96999707       0.69755902       0.73068016 </v>
   <v>       0.01885629       0.37132488       0.45515951 </v>
   <v>       0.90757561       0.20738634       0.04058575 </v>
   <v>       0.71942927       0.13510537       0.44924211 </v>
   <v>       0.54280000       0.63253951       0.77489636 </v>
   <v>       0.62474732       0.82067024       0.24893279 </v>
   <v>       0.70378341       0.03262937       0.77213684 </v>
   <v>       0.60069659       0.27846537       0.61539028 </v>
   <v>       0.88054537       0.86997561       0.03758777 </v>
   <v>       0.29042537       0.60738049       0.33795709 </v>
   <v>       0.28346732       0.46931220       0.88485830 </v>
   <v>       0.09519063       0.43240585       0.97993522 </v>
   <v>       0.19734537       0.71302244       0.48789474 </v>
   <v>       0.98715122       0.62111805       0.45438866 </v>
   <v>       0.36834634       0.10549366       0.80559109 </v>
   <v>       0.38381463       0.88763415       0.21947368 </v>
   <v>       0.43459415       0.91208780       0.82857490 </v>
   <v>       0.19848293       0.90734146       0.48087935 </v>
   <v>       0.85987610       0.73685073       0.54535223 </v>
   <v>       0.02585688       0.19540195       0.59163725 </v>
   <v>       0.49765659       0.61605366       0.33616680 </v>
   <v>       0.39620585       0.61682537       0.94947368 </v>
   <v>       0.17870537       0.38827805       0.13712955 </v>
   <v>       0.18190732       0.55669854       0.74799190 </v>
   <v>       0.77497366       0.37413854       0.07982275 </v>
   <v>       0.76991805       0.56724878       0.81674494 </v>
   <v>       0.07750254       0.24363610       0.90255061 </v>
   <v>       0.94962829       0.65216195       0.29100567 </v>
   <v>       0.08881473       0.21439707       0.18794899 </v>
   <v>       0.78471707       0.04707307       0.95357085 </v>
   <v>       0.83694341       0.12258049       0.61180486 </v>
   <v>       0.48368195       0.17724293       0.46342672 </v>
   <v>       0.68841756       0.72290829       0.08761943 </v>
   <v>       0.80220293       0.39948976       0.73697490 </v>
   <v>       0.45717659       0.18553171       0.14103077 </v>
   <v>       0.53660000       0.22128390       0.80548745 </v>
   <v>       0.54777659       0.85295512       0.68972308 </v>
   <v>       0.41202927       0.00787192       0.07991401 </v>
   <v>       0.24310244       0.42990537       0.41217571 </v>
   <v>       0.52465366       0.49649268       0.60934332 </v>
   <v>       0.79366049       0.34289756       0.37624696 </v>
   <v>       0.07889893       0.89984098       0.75987611 </v>
   <v>       0.74657756       0.02240556       0.28766397 </v>
   <v>       0.06990478       0.75747122       0.02791506 </v>
  </varray>
 </structure>
 <calculation>
  <scstep>
   <time name="diag">    0.25    0.26</time>
   <time name="diis">    0.35    0.35</time>
   <time name="orth">    0.02    0.02</time>
   <time name="total">    0.73    0.77</time>
   <energy>
    <i name="alphaZ">    256.70245505 </i>
    <i name="ewald">  -9920.34864952 </i>
    <i name="hartreedc">  -3346.72120851 </i>
    <i name="XCdc">    791.77717032 </i>
    <i name="pawpsdc">  10155.13001117 </i>
    <i name="pawaedc"> -10497.29644279 </i>
    <i name="eentropy">     -0.00101600 </i>
    <i name="bandstr">  -4504.30930966 </i>
    <i name="atom">  15932.49537490 </i>
    <i name="e_fr_energy">  -1132.57161504 </i>
    <i name="e_wo_entrp">  -1132.57059904 </i>
    <i name="e_0_energy">  -1132.57110704 </i>
   </energy>
  </scstep>
  <scstep>
   <time name="diag">    0.19    0.19</time>
   <time name="diis">    0.34    0.34</time>
   <time name="orth">    0.02    0.02</time>
   <time name="total">    0.55    0.55</time>
   <energy>
    <i name="e_fr_energy">    742.32305453 </i>
    <i name="e_wo_entrp">    742.32305457 </i>
    <i name="e_0_energy">    742.32305455 </i>
   </energy>
  </scstep>
  <scstep>
   <time name="diag">    0.19    0.19</time>
   <time name="diis">    0.34    0.34</time>
   <time name="orth">    0.02    0.02</time>
   <time name="total">    0.55    0.55</time>
   <energy>
    <i name="e_fr_energy">    238.99616649 </i>
    <i name="e_wo_entrp">    239.03951689 </i>
    <i name="e_0_energy">    239.01784169 </i>
   </energy>
  </scstep>
  <scstep>
   <time name="diag">    0.19    0.19</time>
   <time name="diis">    0.34    0.34</time>
   <time name="orth">    0.02    0.02</time>
   <time name="total">    0.55    0.55</time>
   <energy>
    <i name="e_fr_energy">    -17.53845901 </i>
    <i name="e_wo_entrp">    -17.48476735 </i>
    <i name="e_0_energy">    -17.51161318 </i>
   </energy>
  </scstep>
  <scstep>
   <time name="diag">    0.19    0.18</time>
   <time name="diis">    0.34    0.34</time>
   <time name="orth">    0.02    0.02</time>
   <time name="total">    0.54    0.54</time>
   <energy>
    <i name="e_fr_energy">   -129.44430310 </i>
    <i name="e_wo_entrp">   -129.44430310 </i>
    <i name="e_0_energy">   -129.44430310 </i>
   </energy>
  </scstep>
  <scstep>
   <time name="diag">    0.20    0.20</time>
   <time name="diis">    0.38    0.38</time>
   <time name="orth">    0.03    0.03</time>
   <time name="total">    0.60    0.60</time>
   <energy>
    <i name="e_fr_energy">   -175.33008436 </i>
    <i name="e_wo_entrp">   -175.33008436 </i>
    <i name="e_0_energy">   -175.33008436 </i>
   </energy>
  </scstep>
  <scstep>
   <time name="diag">    0.20    0.20</time>
   <time name="diis">    0.39    0.39</time>
   <time name="orth">    0.03    0.03</time>
   <time name="total">    0.61    0.61</time>
   <energy>
    <i name="e_fr_energy">   -197.33748961 </i>
    <i name="e_wo_entrp">   -197.33748961 </i>
    <i name="e_0_energy">   -197.33748961 </i>
   </energy>
  </scstep>
  <scstep>
   <time name="diag">    0.20    0.20</time>
   <time name="diis">    0.33    0.33</time>
   <time name="orth">    0.02    0.02</time>
   <time name="total">    0.55    0.55</time>
   <energy>
    <i name="e_fr_energy">   -210.22887856 </i>
    <i name="e_wo_entrp">   -210.22887856 </i>
    <i name="e_0_energy">   -210.22887856 </i>
   </energy>
  </scstep>
  <scstep>
   <time name="diag">    0.18    0.18</time>
   <time name="diis">    1.18    1.18</time>
   <time name="orth">    0.03    0.03</time>
   <time name="total">    1.39    1.39</time>
   <energy>
    <i name="e_fr_energy">   -244.57002173 </i>
    <i name="e_wo_entrp">   -244.57002173 </i>
    <i name="e_0_energy">   -244.57002173 </i>
   </energy>
  </scstep>
  <scstep>
   <time name="diag">    0.19    0.19</time>
   <time name="diis">    1.17    1.17</time>
   <time name="orth">    0.03    0.03</time>
   <time name="total">    1.40    1.40</time>
   <energy>
    <i name="e_fr_energy">   -262.11523999 </i>
    <i name="e_wo_entrp">   -262.11523999 </i>
    <i name="e_0_energy">   -262.11523999 </i>
   </energy>
  </scstep>
  <scstep>
   <time name="diag">    0.19    0.19</time>
   <time name="diis">    1.14    1.14</time>
   <time name="orth">    0.03    0.03</time>
   <time name="total">    1.36    1.36</time>
   <energy>
    <i name="e_fr_energy">   -265.98277987 </i>
    <i name="e_wo_entrp">   -265.98277987 </i>
    <i name="e_0_energy">   -265.98277987 </i>
   </energy>
  </scstep>
  <scstep>
   <time name="diag">    0.19    0.19</time>
   <time name="diis">    1.12    1.12</time>
   <time name="orth">    0.04    0.04</time>
   <time name="total">    1.39    1.40</time>
   <energy>
    <i name="e_fr_energy">   -268.12203653 </i>
    <i name="e_wo_entrp">   -268.12203653 </i>
    <i name="e_0_energy">   -268.12203653 </i>
   </energy>
  </scstep>
  <scstep>
   <time name="diag">    0.18    0.18</time>
   <time name="diis">    0.86    0.86</time>
   <time name="orth">    0.04    0.04</time>
   <time name="total">    1.21    1.21</time>
   <energy>
    <i name="e_fr_energy">   -259.43603431 </i>
    <i name="e_wo_entrp">   -259.43603431 </i>
    <i name="e_0_energy">   -259.43603431 </i>
   </energy>
  </scstep>
  <scstep>
   <time name="diag">    0.18    0.18</time>
   <time name="diis">    0.91    0.91</time>
   <time name="orth">    0.03    0.03</time>
   <time name="total">    1.26    1.26</time>
   <energy>
    <i name="e_fr_energy">   -258.42936356 </i>
    <i name="e_wo_entrp">   -258.42936356 </i>
    <i name="e_0_energy">   -258.42936356 </i>
   </energy>
  </scstep>
  <scstep>
   <time name="diag">    0.18    0.18</time>
   <time name="diis">    1.16    1.16</time>
   <time name="orth">    0.04    0.04</time>
   <time name="total">    1.52    1.52</time>
   <energy>
    <i name="e_fr_energy">   -258.55098776 </i>
    <i name="e_wo_entrp">   -258.55098776 </i>
    <i name="e_0_energy">   -258.55098776 </i>
   </energy>
  </scstep>
  <scstep>
   <time name="diag">    0.18    0.18</time>
   <time name="diis">    1.09    1.09</time>
   <time name="orth">    0.03    0.03</time>
   <time name="total">    1.43    1.43</time>
   <energy>
    <i name="e_fr_energy">   -258.67525802 </i>
    <i name="e_wo_entrp">   -258.67525802 </i>
    <i name="e_0_energy">   -258.67525802 </i>
   </energy>
  </scstep>
  <scstep>
   <time name="diag">    0.18    0.18</time>
   <time name="diis">    1.07    1.07</time>
   <time name="orth">    0.03    0.03</time>
   <time name="total">    1.42    1.41</time>
   <energy>
    <i name="e_fr_energy">   -258.76482221 </i>
    <i name="e_wo_entrp">   -258.76482221 </i>
    <i name="e_0_energy">   -258.76482221 </i>
   </energy>
  </scstep>
  <scstep>
   <time name="diag">    0.18    0.18</time>
   <time name="diis">    1.08    1.07</time>
   <time name="orth">    0.03    0.03</time>
   <time name="total">    1.42    1.42</time>
   <energy>
    <i name="e_fr_energy">   -258.81715984 </i>
    <i name="e_wo_entrp">   -258.81715984 </i>
    <i name="e_0_energy">   -258.81715984 </i>
   </energy>
  </scstep>
  <scstep>
   <time name="diag">    0.18    0.18</time>
   <time name="diis">    1.09    1.09</time>
   <time name="orth">    0.03    0.03</time>
   <time name="total">    1.43    1.43</time>
   <energy>
    <i name="e_fr_energy">   -258.85382450 </i>
    <i name="e_wo_entrp">   -258.85382450 </i>
    <i name="e_0_energy">   -258.85382450 </i>
   </energy>
  </scstep>
  <scstep>
   <time name="diag">    0.18    0.18</time>
   <time name="diis">    1.13    1.13</time>
   <time name="orth">    0.03    0.03</time>
   <time name="total">    1.47    1.47</time>
   <energy>
    <i name="e_fr_energy">   -258.86978837 </i>
    <i name="e_wo_entrp">   -258.86978837 </i>
    <i name="e_0_energy">   -258.86978837 </i>
   </energy>
  </scstep>
  <scstep>
   <time name="diag">    0.18    0.18</time>
   <time name="diis">    1.13    1.13</time>
   <time name="orth">    0.03    0.03</time>
   <time name="total">    1.48    1.48</time>
   <energy>
    <i name="e_fr_energy">   -258.87965652 </i>
    <i name="e_wo_entrp">   -258.87965652 </i>
    <i name="e_0_energy">   -258.87965652 </i>
   </energy>
  </scstep>
  <scstep>
   <time name="diag">    0.20    0.20</time>
   <time name="diis">    1.23    1.22</time>
   <time name="orth">    0.03    0.03</time>
   <time name="total">    1.61    1.61</time>
   <energy>
    <i name="e_fr_energy">   -258.88486461 </i>
    <i name="e_wo_entrp">   -258.88486461 </i>
    <i name="e_0_energy">   -258.88486461 </i>
   </energy>
  </scstep>
  <scstep>
   <time name="diag">    0.20    0.20</time>
   <time name="diis">    1.12    1.12</time>
   <time name="orth">    0.04    0.04</time>
   <time name="total">    1.49    1.49</time>
   <energy>
    <i name="e_fr_energy">   -258.88705800 </i>
    <i name="e_wo_entrp">   -258.88705800 </i>
    <i name="e_0_energy">   -258.88705800 </i>
   </energy>
  </scstep>
  <scstep>
   <time name="diag">    0.20    0.20</time>
   <time name="diis">    1.14    1.14</time>
   <time name="orth">    0.03    0.03</time>
   <time name="total">    1.50    1.50</time>
   <energy>
    <i name="e_fr_energy">   -258.88621960 </i>
    <i name="e_wo_entrp">   -258.88621960 </i>
    <i name="e_0_energy">   -258.88621960 </i>
   </energy>
  </scstep>
  <scstep>
   <time name="diag">    0.18    0.18</time>
   <time name="diis">    0.95    0.95</time>
   <time name="orth">    0.03    0.03</time>
   <time name="total">    1.28    1.28</time>
   <energy>
    <i name="e_fr_energy">   -258.88941125 </i>
    <i name="e_wo_entrp">   -258.88941125 </i>
    <i name="e_0_energy">   -258.88941125 </i>
   </energy>
  </scstep>
  <scstep>
   <time name="diag">    0.18    0.18</time>
   <time name="diis">    1.13    1.13</time>
   <time name="orth">    0.03    0.03</time>
   <time name="total">    1.48    1.47</time>
   <energy>
    <i name="e_fr_energy">   -258.89046003 </i>
    <i name="e_wo_entrp">   -258.89046003 </i>
    <i name="e_0_energy">   -258.89046003 </i>
   </energy>
  </scstep>
  <scstep>
   <time name="diag">    0.18    0.18</time>
   <time name="diis">    1.09    1.09</time>
   <time name="orth">    0.03    0.03</time>
   <time name="total">    1.43    1.43</time>
   <energy>
    <i name="e_fr_energy">   -258.89069407 </i>
    <i name="e_wo_entrp">   -258.89069407 </i>
    <i name="e_0_energy">   -258.89069407 </i>
   </energy>
  </scstep>
  <scstep>
   <time name="diag">    0.18    0.18</time>
   <time name="diis">    0.86    0.86</time>
   <time name="orth">    0.03    0.03</time>
   <time name="total">    1.20    1.20</time>
   <energy>
    <i name="e_fr_energy">   -258.89361313 </i>
    <i name="e_wo_entrp">   -258.89361313 </i>
    <i name="e_0_energy">   -258.89361313 </i>
   </energy>
  </scstep>
  <scstep>
   <time name="diag">    0.19    0.19</time>
   <time name="diis">    1.03    1.03</time>
   <time name="orth">    0.03    0.03</time>
   <time name="total">    1.39    1.39</time>
   <energy>
    <i name="e_fr_energy">   -258.89265866 </i>
    <i name="e_wo_entrp">   -258.89265866 </i>
    <i name="e_0_energy">   -258.89265866 </i>
   </energy>
  </scstep>
  <scstep>
   <time name="diag">    0.18    0.18</time>
   <time name="diis">    0.87    0.87</time>
   <time name="orth">    0.03    0.03</time>
   <time name="total">    1.21    1.21</time>
   <energy>
    <i name="e_fr_energy">   -258.89393246 </i>
    <i name="e_wo_entrp">   -258.89393246 </i>
    <i name="e_0_energy">   -258.89393246 </i>
   </energy>
  </scstep>
  <scstep>
   <time name="diag">    0.18    0.18</time>
   <time name="diis">    0.94    0.94</time>
   <time name="orth">    0.03    0.03</time>
   <time name="total">    1.28    1.28</time>
   <energy>
    <i name="e_fr_energy">   -258.89416719 </i>
    <i name="e_wo_entrp">   -258.89416719 </i>
    <i name="e_0_energy">   -258.89416719 </i>
   </energy>
  </scstep>
  <scstep>
   <time name="diag">    0.18    0.18</time>
   <time name="diis">    1.05    1.04</time>
   <time name="orth">    0.03    0.03</time>
   <time name="total">    1.39    1.39</time>
   <energy>
    <i name="e_fr_energy">   -258.89430085 </i>
    <i name="e_wo_entrp">   -258.89430085 </i>
    <i name="e_0_energy">   -258.89430085 </i>
   </energy>
  </scstep>
  <scstep>
   <time name="diag">    0.18    0.18</time>
   <time name="diis">    0.99    0.99</time>
   <time name="orth">    0.03    0.03</time>
   <time name="total">    1.34    1.34</time>
   <energy>
    <i name="e_fr_energy">   -258.89437850 </i>
    <i name="e_wo_entrp">   -258.89437850 </i>
    <i name="e_0_energy">   -258.89437850 </i>
   </energy>
  </scstep>
  <scstep>
   <time name="diag">    0.18    0.18</time>
   <time name="diis">    1.01    1.01</time>
   <time name="orth">    0.03    0.03</time>
   <time name="total">    1.35    1.35</time>
   <energy>
    <i name="e_fr_energy">   -258.89442547 </i>
    <i name="e_wo_entrp">   -258.89442547 </i>
    <i name="e_0_energy">   -258.89442547 </i>
   </energy>
  </scstep>
  <scstep>
   <time name="diag">    0.18    0.18</time>
   <time name="diis">    1.00    0.99</time>
   <time name="orth">    0.03    0.03</time>
   <time name="total">    1.34    1.34</time>
   <energy>
    <i name="e_fr_energy">   -258.89445818 </i>
    <i name="e_wo_entrp">   -258.89445818 </i>
    <i name="e_0_energy">   -258.89445818 </i>
   </energy>
  </scstep>
  <scstep>
   <time name="diag">    0.18    0.18</time>
   <time name="diis">    0.96    0.96</time>
   <time name="orth">    0.04    0.04</time>
   <time name="total">    1.31    1.31</time>
   <energy>
    <i name="e_fr_energy">   -258.89447687 </i>
    <i name="e_wo_entrp">   -258.89447687 </i>
    <i name="e_0_energy">   -258.89447687 </i>
   </energy>
  </scstep>
  <scstep>
   <time name="diag">    0.20    0.20</time>
   <time name="diis">    0.89    0.89</time>
   <time name="orth">    0.03    0.03</time>
   <time name="total">    1.26    1.26</time>
   <energy>
    <i name="e_fr_energy">   -258.89447660 </i>
    <i name="e_wo_entrp">   -258.89447660 </i>
    <i name="e_0_energy">   -258.89447660 </i>
   </energy>
  </scstep>
  <scstep>
   <time name="diag">    0.18    0.18</time>
   <time name="diis">    0.94    0.94</time>
   <time name="orth">    0.03    0.03</time>
   <time name="total">    1.29    1.29</time>
   <energy>
    <i name="e_fr_energy">   -258.89447618 </i>
    <i name="e_wo_entrp">   -258.89447618 </i>
    <i name="e_0_energy">   -258.89447618 </i>
   </energy>
  </scstep>
  <scstep>
   <time name="diag">    0.18    0.18</time>
   <time name="diis">    0.87    0.87</time>
   <time name="orth">    0.03    0.03</time>
   <time name="total">    1.21    1.21</time>
   <energy>
    <i name="e_fr_energy">   -258.89449450 </i>
    <i name="e_wo_entrp">   -258.89449450 </i>
    <i name="e_0_energy">   -258.89449450 </i>
   </energy>
  </scstep>
  <scstep>
   <time name="diag">    0.18    0.18</time>
   <time name="diis">    0.88    0.88</time>
   <time name="orth">    0.03    0.03</time>
   <time name="total">    1.22    1.22</time>
   <energy>
    <i name="e_fr_energy">   -258.89450163 </i>
    <i name="e_wo_entrp">   -258.89450163 </i>
    <i name="e_0_energy">   -258.89450163 </i>
   </energy>
  </scstep>
  <scstep>
   <time name="diag">    0.18    0.18</time>
   <time name="diis">    0.77    0.77</time>
   <time name="orth">    0.03    0.03</time>
   <time name="total">    1.11    1.11</time>
   <energy>
    <i name="e_fr_energy">   -258.89450105 </i>
    <i name="e_wo_entrp">   -258.89450105 </i>
    <i name="e_0_energy">   -258.89450105 </i>
   </energy>
  </scstep>
  <scstep>
   <time name="diag">    0.18    0.18</time>
   <time name="diis">    0.83    0.83</time>
   <time name="orth">    0.03    0.03</time>
   <time name="total">    1.18    1.18</time>
   <energy>
    <i name="e_fr_energy">   -258.89449821 </i>
    <i name="e_wo_entrp">   -258.89449821 </i>
    <i name="e_0_energy">   -258.89449821 </i>
   </energy>
  </scstep>
  <scstep>
   <time name="diag">    0.18    0.18</time>
   <time name="diis">    0.68    0.68</time>
   <time name="orth">    0.03    0.03</time>
   <time name="total">    1.02    1.02</time>
   <energy>
    <i name="e_fr_energy">   -258.89449920 </i>
    <i name="e_wo_entrp">   -258.89449920 </i>
    <i name="e_0_energy">   -258.89449920 </i>
   </energy>
  </scstep>
  <scstep>
   <time name="diag">    0.18    0.18</time>
   <time name="diis">    0.67    0.67</time>
   <time name="orth">    0.03    0.03</time>
   <time name="total">    1.02    1.02</time>
   <energy>
    <i name="e_fr_energy">   -258.89449899 </i>
    <i name="e_wo_entrp">   -258.89449899 </i>
    <i name="e_0_energy">   -258.89449899 </i>
   </energy>
  </scstep>
  <scstep>
   <time name="diag">    0.20    0.20</time>
   <time name="diis">    0.82    0.82</time>
   <time name="orth">    0.03    0.03</time>
   <time name="total">    1.14    1.14</time>
   <energy>
    <i name="alphaZ">    256.70245505 </i>
    <i name="ewald">  -9920.34864952 </i>
    <i name="hartreedc">  -3524.66593704 </i>
    <i name="XCdc">    805.88908878 </i>
    <i name="pawpsdc">  22914.24432513 </i>
    <i name="pawaedc"> -23271.15257964 </i>
    <i name="eentropy">     -0.00000000 </i>
    <i name="bandstr">  -3452.05857722 </i>
    <i name="atom">  15932.49537490 </i>
    <i name="e_fr_energy">   -258.89449956 </i>
    <i name="e_wo_entrp">   -258.89449956 </i>
    <i name="e_0_energy">   -258.89449956 </i>
   </energy>
  </scstep>
  <structure>
   <crystal>
    <varray name="basis" >
     <v>      10.25000000       0.00000000       0.00000000 </v>
     <v>       0.00000000      10.25000000       0.00000000 </v>
     <v>       0.00000000       0.00000000      12.35000000 </v>
    </varray>
    <i name="volume">   1297.52187500 </i>
    <varray name="rec_basis" >
     <v>       0.09756098       0.00000000       0.00000000 </v>
     <v>       0.00000000       0.09756098       0.00000000 </v>
     <v>       0.00000000       0.00000000       0.08097166 </v>
    </varray>
   </crystal>
   <varray name="positions" >
    <v>       0.62779512       0.89425073       0.00458215 </v>
    <v>       0.73197268       0.56971805       0.61190040 </v>
    <v>       0.22999415       0.17411707       0.02878632 </v>
    <v>       0.15340488       0.72621854       0.20589879 </v>
    <v>       0.29852195       0.20803902       0.32432065 </v>
    <v>       0.19957366       0.04809532       0.66227530 </v>
    <v>       0.73414244       0.55904390       0.21522672 </v>
    <v>       0.51118927       0.07181824       0.30122915 </v>
    <v>       0.98254634       0.93267220       0.58073846 </v>
    <v>       0.93873854       0.40240780       0.22751822 </v>
    <v>       0.43212195       0.96609366       0.52588664 </v>
    <v>       0.89050439       0.58741171       0.00851806 </v>
    <v>       0.01430546       0.36397171       0.73419676 </v>
    <v>       0.29598244       0.52273951       0.59934494 </v>
    <v>       0.61723415       0.22965463       0.98614575 </v>
    <v>       0.85201268       0.18684293       0.82785425 </v>
    <v>       0.62387610       0.54000293       0.98940081 </v>
    <v>       0.46330049       0.40390634       0.43235951 </v>
    <v>       0.47608683       0.66063512       0.14753117 </v>
    <v>       0.20601366       0.74909756       0.86604049 </v>
    <v>       0.69731512       0.24015512       0.21923644 </v>
    <v>       0.96999707       0.69755902       0.73068016 </v>
    <v>       0.01885629       0.37132488       0.45515951 </v>
    <v>       0.90757561       0.20738634       0.04058575 </v>
    <v>       0.71942927       0.13510537       0.44924211 </v>
    <v>       0.54280000       0.63253951       0.77489636 </v>
    <v>       0.62474732       0.82067024       0.24893279 </v>
    <v>       0.70378341       0.03262937       0.77213684 </v>
    <v>       0.60069659       0.27846537       0.61539028 </v>
    <v>       0.88054537       0.86997561       0.03758777 </v>
    <v>       0.29042537       0.60738049       0.33795709 </v>
    <v>       0.28346732       0.46931220       0.88485830 </v>
    <v>       0.09519063       0.43240585       0.97993522 </v>
    <v>       0.19734537       0.71302244       0.48789474 </v>
    <v>       0.98715122       0.62111805       0.45438866 </v>
    <v>       0.36834634       0.10549366       0.80559109 </v>
    <v>       0.38381463       0.88763415       0.21947368 </v>
    <v>       0.43459415       0.91208780       0.82857490 </v>
    <v>       0.19848293       0.90734146       0.48087935 </v>
    <v>       0.85987610       0.73685073       0.54535223 </v>
    <v>       0.02585688       0.19540195       0.59163725 </v>
    <v>       0.49765659       0.61605366       0.33616680 </v>
    <v>       0.39620585       0.61682537       0.94947368 </v>
    <v>       0.17870537       0.38827805       0.13712955 </v>
    <v>       0.18190732       0.55669854       0.74799190 </v>
    <v>       0.77497366       0.37413854       0.07982275 </v>
    <v>       0.76991805       0.56724878       0.81674494 </v>
    <v>       0.07750254       0.24363610       0.90255061 </v>
    <v>       0.94962829       0.65216195       0.29100567 </v>
    <v>       0.08881473       0.21439707       0.18794899 </v>
    <v>       0.78471707       0.04707307       0.95357085 </v>
    <v>       0.83694341       0.12258049       0.61180486 </v>
    <v>       0.48368195       0.17724293       0.46342672 </v>
    <v>       0.68841756       0.72290829       0.08761943 </v>
    <v>       0.80220293       0.39948976       0.73697490 </v>
    <v>       0.45717659       0.18553171       0.14103077 </v>
    <v>       0.53660000       0.22128390       0.80548745 </v>
    <v>       0.54777659       0.85295512       0.68972308 </v>
    <v>       0.41202927       0.00787192       0.07991401 </v>
    <v>       0.24310244       0.42990537       0.41217571 </v>
    <v>       0.52465366       0.49649268       0.60934332 </v>
    <v>       0.79366049       0.34289756       0.37624696 </v>
    <v>       0.07889893       0.89984098       0.75987611 </v>
    <v>       0.74657756       0.02240556       0.28766397 </v>
    <v>       0.06990478       0.75747122       0.02791506 </v>
   </varray>
  </structure>
  <varray name="forces" >
   <v>      -0.61314743       1.01392203      -0.59462681 </v>
   <v>       0.21796651      -0.14687043       0.11342067 </v>
   <v>       0.30632045      -0.19842922       0.22705546 </v>
   <v>      -0.15723081       0.18757678      -0.12126894 </v>
   <v>      -0.20600252       0.11364262      -0.03436715 </v>
   <v>      -0.12036963       0.01799476      -0.08475022 </v>
   <v>       0.13573074      -0.18756577       0.06383076 </v>
   <v>       0.33126896      -0.38966791      -0.01353129 </v>
   <v>      -0.09682941       0.14791114      -0.06203031 </v>
   <v>       0.06897510      -0.01990311      -0.10519632 </v>
   <v>      -0.05484004      -0.14672901       0.16723705 </v>
   <v>      -0.17627599      -0.27282428      -0.10784185 </v>
   <v>       0.90966644       0.00376217      -0.11862483 </v>
   <v>       0.31602999       0.04926010      -0.51523640 </v>
   <v>       0.34605076      -0.26500989       0.19962055 </v>
   <v>       0.54636143       0.64874402      -0.26981267 </v>
   <v>       0.29875495      -0.30776219      -0.27923173 </v>
   <v>       0.53643700       0.02200067       0.08006641 </v>
   <v>      -0.43910930       0.22981515      -0.15390202 </v>
   <v>       0.15849309       0.21987704      -0.00637218 </v>
   <v>       0.11655167      -0.13887863      -0.00161680 </v>
   <v>      -0.21365627      -0.09873777      -0.05600190 </v>
   <v>      -0.34209076      -0.04551737       0.22536318 </v>
   <v>       0.30686805      -0.37341733       0.04031822 </v>
   <v>       0.06071966       0.06531711      -0.23884366 </v>
   <v>      -0.05431298      -0.00768621      -0.05550014 </v>
   <v>       0.05994195       0.30836230       0.26899050 </v>
   <v>      -0.51287229      -0.56972967      -0.13450910 </v>
   <v>       0.06251950      -0.04330109       0.39173442 </v>
   <v>      -0.12976666       0.13957331       0.12531988 </v>
   <v>      -0.33129770       0.61024628      -0.23411791 </v>
   <v>      -0.34136780      -1.09683781      -0.47033152 </v>
   <v>      -0.23010728      -0.43676775      -0.69222489 </v>
   <v>      -0.02550477      -1.81238327       0.32610043 </v>
   <v>       0.77683947      -0.18671321       0.23568002 </v>
   <v>       0.71998408      -0.28110068       0.23977168 </v>
   <v>       0.18900133       0.09089862      -0.43974840 </v>
   <v>       0.21182943       0.02852279      -0.72616952 </v>
   <v>       0.09974777       1.50836541      -0.31848714 </v>
   <v>       0.26478528       0.28867704       0.05479405 </v>
   <v>       0.50634890       0.39101749      -0.05600236 </v>
   <v>       0.01544453      -0.18889324       0.33291402 </v>
   <v>       0.38456059       0.70731780       0.37506885 </v>
   <v>      -0.04940519      -0.07395199       0.00372308 </v>
   <v>      -0.43178726      -0.09821744       0.85320906 </v>
   <v>      -0.48647179       1.00885953       0.32264446 </v>
   <v>      -0.19435579       1.75878992       0.98524603 </v>
   <v>      -0.10704920       0.87602387       0.17237474 </v>
   <v>      -0.23778555       0.00118541      -0.59860315 </v>
   <v>       0.20199841       0.11522740       0.22358749 </v>
   <v>      -0.35468365      -0.41842682       0.09191730 </v>
   <v>      -0.43021625      -0.31601193       0.46715446 </v>
   <v>      -0.07413963      -0.27650801      -0.01290957 </v>
   <v>       0.52863993      -0.62026624       0.30618890 </v>
   <v>      -0.39726844      -1.40251528      -0.76099283 </v>
   <v>       0.19080918       1.12597617       0.20692641 </v>
   <v>      -0.33700349      -0.06151037      -0.64502542 </v>
   <v>      -0.39750328       0.52410467       0.60275396 </v>
   <v>      -0.28730515      -1.16962774       0.14187865 </v>
   <v>      -0.07554008      -0.49627096       0.11231562 </v>
   <v>      -0.48955477       0.11929830      -0.02253490 </v>
   <v>       0.08965842       0.20662620      -0.03146944 </v>
   <v>      -0.21746660      -0.08537457       0.13176217 </v>
   <v>      -0.40672507      -0.21404144      -0.14128480 </v>
   <v>       0.06073921      -0.08144748       0.01419768 </v>
  </varray>
  <varray name="stress" >
   <v>      -2.61222041      -5.99683187      -0.03694842 </v>
   <v>      -5.99683191      16.49834312      -2.15886276 </v>
   <v>      -0.03694851      -2.15886294       5.64769678 </v>
  </varray>
  <energy>
   <i name="e_fr_energy">   -258.89449956 </i>
   <i name="e_wo_entrp">   -258.89449956 </i>
   <i name="e_0_energy">     -0.00000000 </i>
  </energy>
  <time name="totalsc">   56.09   56.12</time>
  <eigenvalues>
   <array>
    <dimension dim="1">band</dimension>
    <dimension dim="2">kpoint</dimension>
    <dimension dim="3">spin</dimension>
    <field>eigene</field>
    <field>occ</field>
    <set>
     <set comment="spin 1">
      <set comment="kpoint 1">
       <r>  -44.1529    1.0000 </r>
       <r>  -43.7509    1.0000 </r>
       <r>  -43.7344    1.0000 </r>
       <r>  -43.6893    1.0000 </r>
       <r>  -43.6720    1.0000 </r>
       <r>  -43.6473    1.0000 </r>
       <r>  -43.6378    1.0000 </r>
       <r>  -43.6357    1.0000 </r>
       <r>  -43.5592    1.0000 </r>
       <r>  -43.5464    1.0000 </r>
       <r>  -43.5377    1.0000 </r>
       <r>  -43.5364    1.0000 </r>
       <r>  -43.4814    1.0000 </r>
       <r>  -43.4474    1.0000 </r>
       <r>  -43.3921    1.0000 </r>
       <r>  -43.3474    1.0000 </r>
       <r>  -43.3110    1.0000 </r>
       <r>  -43.3020    1.0000 </r>
       <r>  -43.2910    1.0000 </r>
       <r>  -43.2601    1.0000 </r>
       <r>  -43.2553    1.0000 </r>
       <r>  -43.2507    1.0000 </r>
       <r>  -43.2425    1.0000 </r>
       <r>  -43.1826    1.0000 </r>
       <r>  -43.1717    1.0000 </r>
       <r>  -43.0111    1.0000 </r>
       <r>  -42.9345    1.0000 </r>
       <r>  -42.8651    1.0000 </r>
       <r>  -42.8549    1.0000 </r>
       <r>  -42.5275    1.0000 </r>
       <r>  -13.8463    1.0000 </r>
       <r>  -13.7051    1.0000 </r>
       <r>  -13.3581    1.0000 </r>
       <r>  -13.2677    1.0000 </r>
       <r>  -13.1382    1.0000 </r>
       <r>  -12.8894    1.0000 </r>
       <r>  -12.8065    1.0000 </r>
       <r>  -12.7125    1.0000 </r>
       <r>  -12.4280    1.0000 </r>
       <r>  -12.4066    1.0000 </r>
       <r>  -12.1489    1.0000 </r>
       <r>  -12.0016    1.0000 </r>
       <r>  -11.7788    1.0000 </r>
       <r>  -11.7469    1.0000 </r>
       <r>  -11.2883    1.0000 </r>
       <r>  -11.1189    1.0000 </r>
       <r>  -10.7181    1.0000 </r>
       <r>  -10.4529    1.0000 </r>
       <r>  -10.3561    1.0000 </r>
       <r>  -10.0502    1.0000 </r>
       <r>   -9.5917    1.0000 </r>
       <r>   -9.4550    1.0000 </r>
       <r>   -9.3927    1.0000 </r>
       <r>   -9.0792    1.0000 </r>
       <r>   -9.0033    1.0000 </r>
       <r>   -8.7316    1.0000 </r>
       <r>   -8.1753    1.0000 </r>
       <r>   -8.1403    1.0000 </r>
       <r>   -7.9527    1.0000 </r>
       <r>   -7.7864    1.0000 </r>
       <r>   -7.7493    1.0000 </r>
       <r>   -7.4701    1.0000 </r>
       <r>   -6.5891    1.0000 </r>
       <r>   -5.9475    1.0000 </r>
       <r>   -5.3742    1.0000 </r>
       <r>   -3.7377    1.0000 </r>
       <r>   -3.5566    1.0000 </r>
       <r>   -3.4772    1.0000 </r>
       <r>   -3.2831    1.0000 </r>
       <r>   -3.0834    1.0000 </r>
       <r>   -3.0342    1.0000 </r>
       <r>   -3.0040    1.0000 </r>
       <r>   -2.8851    1.0000 </r>
       <r>   -2.6952    1.0000 </r>
       <r>   -2.6251    1.0000 </r>
       <r>   -2.5646    1.0000 </r>
       <r>   -2.5253    1.0000 </r>
       <r>   -2.5217    1.0000 </r>
       <r>   -2.4027    1.0000 </r>
       <r>   -2.3644    1.0000 </r>
       <r>   -2.2534    1.0000 </r>
       <r>   -2.2435    1.0000 </r>
       <r>   -2.1424    1.0000 </r>
       <r>   -2.0601    1.0000 </r>
       <r>   -2.0294    1.0000 </r>
       <r>   -1.9447    1.0000 </r>
       <r>   -1.8662    1.0000 </r>
       <r>   -1.8430    1.0000 </r>
       <r>   -1.8036    1.0000 </r>
       <r>   -1.6970    1.0000 </r>
       <r>   -1.6899    1.0000 </r>
       <r>   -1.6248    1.0000 </r>
       <r>   -1.4965    1.0000 </r>
       <r>   -1.4702    1.0000 </r>
       <r>   -1.4252    1.0000 </r>
       <r>   -1.3549    1.0000 </r>
       <r>   -1.3119    1.0000 </r>
       <r>   -1.2989    1.0000 </r>
       <r>   -1.2136    1.0000 </r>
       <r>   -1.1998    1.0000 </r>
       <r>   -1.0936    1.0000 </r>
       <r>   -1.0787    1.0000 </r>
       <r>   -0.9604    1.0000 </r>
       <r>   -0.9282    1.0000 </r>
       <r>   -0.8990    1.0000 </r>
       <r>   -0.8250    1.0000 </r>
       <r>   -0.7659    1.0000 </r>
       <r>   -0.7400    1.0000 </r>
       <r>   -0.6457    1.0000 </r>
       <r>   -0.6069    1.0000 </r>
       <r>   -0.5565    1.0000 </r>
       <r>   -0.4664    1.0000 </r>
       <r>   -0.4263    1.0000 </r>
       <r>   -0.3562    1.0000 </r>
       <r>   -0.3313    1.0000 </r>
       <r>   -0.2672    1.0000 </r>
       <r>   -0.1746    1.0000 </r>
       <r>   -0.1459    1.0000 </r>
       <r>   -0.0171    1.0000 </r>
       <r>    0.0152    1.0000 </r>
       <r>    0.0688    1.0000 </r>
       <r>    0.0731    1.0000 </r>
       <r>    0.1510    1.0000 </r>
       <r>    0.1974    1.0000 </r>
       <r>    0.2451    1.0000 </r>
       <r>    0.2912    1.0000 </r>
       <r>    0.3013    1.0000 </r>
       <r>    0.3605    1.0000 </r>
       <r>    0.5065    1.0000 </r>
       <r>    0.5193    1.0000 </r>
       <r>    0.5339    1.0000 </r>
       <r>    0.6329    1.0000 </r>
       <r>    0.6429    1.0000 </r>
       <r>    0.7149    1.0000 </r>
       <r>    0.7981    1.0000 </r>
       <r>    0.8218    1.0000 </r>
       <r>    0.8920    1.0000 </r>
       <r>    1.0138    1.0000 </r>
       <r>    1.0944    1.0000 </r>
       <r>    1.1193    1.0000 </r>
       <r>    1.1890    1.0000 </r>
       <r>    1.3395    1.0000 </r>
       <r>    1.3969    1.0000 </r>
       <r>    1.4206    1.0000 </r>
       <r>    1.5024    1.0000 </r>
       <r>    1.6232    1.0000 </r>
       <r>    1.7565    1.0000 </r>
       <r>    1.8113    1.0000 </r>
       <r>    1.8656    1.0000 </r>
       <r>    1.9725    1.0000 </r>
       <r>    3.7382    0.0000 </r>
       <r>    3.8688    0.0000 </r>
       <r>    4.0672    0.0000 </r>
       <r>    4.3240    0.0000 </r>
       <r>    4.3966    0.0000 </r>
       <r>    4.4881    0.0000 </r>
       <r>    4.5970    0.0000 </r>
       <r>    4.7103    0.0000 </r>
       <r>    4.8274    0.0000 </r>
       <r>    4.9145    0.0000 </r>
       <r>    5.0290    0.0000 </r>
       <r>    5.1237    0.0000 </r>
       <r>    5.3008    0.0000 </r>
       <r>    5.3877    0.0000 </r>
       <r>    5.4401    0.0000 </r>
       <r>    5.5575    0.0000 </r>
       <r>    5.6258    0.0000 </r>
       <r>    5.8373    0.0000 </r>
       <r>    6.0217    0.0000 </r>
       <r>    6.1049    0.0000 </r>
       <r>    6.2827    0.0000 </r>
       <r>    6.3389    0.0000 </r>
       <r>    6.4476    0.0000 </r>
       <r>    6.4893    0.0000 </r>
       <r>    6.5880    0.0000 </r>
       <r>    6.6342    0.0000 </r>
       <r>    6.7869    0.0000 </r>
       <r>    6.8683    0.0000 </r>
       <r>    6.9244    0.0000 </r>
       <r>    7.0446    0.0000 </r>
       <r>    7.1226    0.0000 </r>
       <r>    7.2058    0.0000 </r>
       <r>    7.3164    0.0000 </r>
       <r>    7.4908    0.0000 </r>
      </set>
     </set>
    </set>
   </array>
  </eigenvalues>
  <separator name="orbital magnetization" >
   <v name="MAGDIPOLOUT">      0.00000000      0.00000000      0.00000000</v>
  </separator>
  <dos>
   <i name="efermi">      2.33286685 </i>
   <total>
    <array>
     <dimension dim="1">gridpoints</dimension>
     <dimension dim="2">spin</dimension>
     <field>energy</field>
     <field>total</field>
     <field>integrated</field>
     <set>
      <set comment="spin 1">
       <r>   -46.7351     0.0000     0.0000 </r>
       <r>   -46.5457     0.0000     0.0000 </r>
       <r>   -46.3564     0.0000     0.0000 </r>
       <r>   -46.1670     0.0000     0.0000 </r>
       <r>   -45.9777     0.0000     0.0000 </r>
       <r>   -45.7883     0.0000     0.0000 </r>
       <r>   -45.5989     0.0000     0.0000 </r>
       <r>   -45.4096     0.0000     0.0000 </r>
       <r>   -45.2202     0.0000     0.0000 </r>
       <r>   -45.0309     0.0000     0.0000 </r>
       <r>   -44.8415     0.0000     0.0000 </r>
       <r>   -44.6521     0.0000     0.0000 </r>
       <r>   -44.4628     0.0000     0.0000 </r>
       <r>   -44.2734     0.0035     0.0007 </r>
       <r>   -44.0841    10.2867     1.9485 </r>
       <r>   -43.8947     0.2721     2.0001 </r>
       <r>   -43.7053    24.2606     6.5941 </r>
       <r>   -43.5160    84.8795    22.6669 </r>
       <r>   -43.3266    54.5133    32.9895 </r>
       <r>   -43.1373    87.0054    49.4649 </r>
       <r>   -42.9479    16.8729    52.6599 </r>
       <r>   -42.7585    28.1532    57.9910 </r>
       <r>   -42.5692     1.3093    58.2389 </r>
       <r>   -42.3798     9.3000    60.0000 </r>
       <r>   -42.1905     0.0002    60.0000 </r>
       <r>   -42.0011     0.0000    60.0000 </r>
       <r>   -41.8117     0.0000    60.0000 </r>
       <r>   -41.6224     0.0000    60.0000 </r>
       <r>   -41.4330     0.0000    60.0000 </r>
       <r>   -41.2437     0.0000    60.0000 </r>
       <r>   -41.0543     0.0000    60.0000 </r>
       <r>   -40.8649     0.0000    60.0000 </r>
       <r>   -40.6756     0.0000    60.0000 </r>
       <r>   -40.4862     0.0000    60.0000 </r>
       <r>   -40.2969     0.0000    60.0000 </r>
       <r>   -40.1075     0.0000    60.0000 </r>
       <r>   -39.9181     0.0000    60.0000 </r>
       <r>   -39.7288     0.0000    60.0000 </r>
       <r>   -39.5394     0.0000    60.0000 </r>
       <r>   -39.3500     0.0000    60.0000 </r>
       <r>   -39.1607     0.0000    60.0000 </r>
       <r>   -38.9713     0.0000    60.0000 </r>
       <r>   -38.7820     0.0000    60.0000 </r>
       <r>   -38.5926     0.0000    60.0000 </r>
       <r>   -38.4032     0.0000    60.0000 </r>
       <r>   -38.2139     0.0000    60.0000 </r>
       <r>   -38.0245     0.0000    60.0000 </r>
       <r>   -37.8352     0.0000    60.0000 </r>
       <r>   -37.6458     0.0000    60.0000 </r>
       <r>   -37.4564     0.0000    60.0000 </r>
       <r>   -37.2671     0.0000    60.0000 </r>
       <r>   -37.0777     0.0000    60.0000 </r>
       <r>   -36.8884     0.0000    60.0000 </r>
       <r>   -36.6990     0.0000    60.0000 </r>
       <r>   -36.5096     0.0000    60.0000 </r>
       <r>   -36.3203     0.0000    60.0000 </r>
       <r>   -36.1309     0.0000    60.0000 </r>
       <r>   -35.9416     0.0000    60.0000 </r>
       <r>   -35.7522     0.0000    60.0000 </r>
       <r>   -35.5628     0.0000    60.0000 </r>
       <r>   -35.3735     0.0000    60.0000 </r>
       <r>   -35.1841     0.0000    60.0000 </r>
       <r>   -34.9948     0.0000    60.0000 </r>
       <r>   -34.8054     0.0000    60.0000 </r>
       <r>   -34.6160     0.0000    60.0000 </r>
       <r>   -34.4267     0.0000    60.0000 </r>
       <r>   -34.2373     0.0000    60.0000 </r>
       <r>   -34.0480     0.0000    60.0000 </r>
       <r>   -33.8586     0.0000    60.0000 </r>
       <r>   -33.6692     0.0000    60.0000 </r>
       <r>   -33.4799     0.0000    60.0000 </r>
       <r>   -33.2905     0.0000    60.0000 </r>
       <r>   -33.1012     0.0000    60.0000 </r>
       <r>   -32.9118     0.0000    60.0000 </r>
       <r>   -32.7224     0.0000    60.0000 </r>
       <r>   -32.5331     0.0000    60.0000 </r>
       <r>   -32.3437     0.0000    60.0000 </r>
       <r>   -32.1544     0.0000    60.0000 </r>
       <r>   -31.9650     0.0000    60.0000 </r>
       <r>   -31.7756     0.0000    60.0000 </r>
       <r>   -31.5863     0.0000    60.0000 </r>
       <r>   -31.3969     0.0000    60.0000 </r>
       <r>   -31.2076     0.0000    60.0000 </r>
       <r>   -31.0182     0.0000    60.0000 </r>
       <r>   -30.8288     0.0000    60.0000 </r>
       <r>   -30.6395     0.0000    60.0000 </r>
       <r>   -30.4501     0.0000    60.0000 </r>
       <r>   -30.2608     0.0000    60.0000 </r>
       <r>   -30.0714     0.0000    60.0000 </r>
       <r>   -29.8820     0.0000    60.0000 </r>
       <r>   -29.6927     0.0000    60.0000 </r>
       <r>   -29.5033     0.0000    60.0000 </r>
       <r>   -29.3140     0.0000    60.0000 </r>
       <r>   -29.1246     0.0000    60.0000 </r>
       <r>   -28.9352     0.0000    60.0000 </r>
       <r>   -28.7459     0.0000    60.0000 </r>
       <r>   -28.5565     0.0000    60.0000 </r>
       <r>   -28.3672     0.0000    60.0000 </r>
       <r>   -28.1778     0.0000    60.0000 </r>
       <r>   -27.9884     0.0000    60.0000 </r>
       <r>   -27.7991     0.0000    60.0000 </r>
       <r>   -27.6097     0.0000    60.0000 </r>
       <r>   -27.4204     0.0000    60.0000 </r>
       <r>   -27.2310     0.0000    60.0000 </r>
       <r>   -27.0416     0.0000    60.0000 </r>
       <r>   -26.8523     0.0000    60.0000 </r>
       <r>   -26.6629     0.0000    60.0000 </r>
       <r>   -26.4736     0.0000    60.0000 </r>
       <r>   -26.2842     0.0000    60.0000 </r>
       <r>   -26.0948     0.0000    60.0000 </r>
       <r>   -25.9055     0.0000    60.0000 </r>
       <r>   -25.7161     0.0000    60.0000 </r>
       <r>   -25.5268     0.0000    60.0000 </r>
       <r>   -25.3374     0.0000    60.0000 </r>
       <r>   -25.1480     0.0000    60.0000 </r>
       <r>   -24.9587     0.0000    60.0000 </r>
       <r>   -24.7693     0.0000    60.0000 </r>
       <r>   -24.5800     0.0000    60.0000 </r>
       <r>   -24.3906     0.0000    60.0000 </r>
       <r>   -24.2012     0.0000    60.0000 </r>
       <r>   -24.0119     0.0000    60.0000 </r>
       <r>   -23.8225     0.0000    60.0000 </r>
       <r>   -23.6332     0.0000    60.0000 </r>
       <r>   -23.4438     0.0000    60.0000 </r>
       <r>   -23.2544     0.0000    60.0000 </r>
       <r>   -23.0651     0.0000    60.0000 </r>
       <r>   -22.8757     0.0000    60.0000 </r>
       <r>   -22.6864     0.0000    60.0000 </r>
       <r>   -22.4970     0.0000    60.0000 </r>
       <r>   -22.3076     0.0000    60.0000 </r>
       <r>   -22.1183     0.0000    60.0000 </r>
       <r>   -21.9289     0.0000    60.0000 </r>
       <r>   -21.7395     0.0000    60.0000 </r>
       <r>   -21.5502     0.0000    60.0000 </r>
       <r>   -21.3608     0.0000    60.0000 </r>
       <r>   -21.1715     0.0000    60.0000 </r>
       <r>   -20.9821     0.0000    60.0000 </r>
       <r>   -20.7927     0.0000    60.0000 </r>
       <r>   -20.6034     0.0000    60.0000 </r>
       <r>   -20.4140     0.0000    60.0000 </r>
       <r>   -20.2247     0.0000    60.0000 </r>
       <r>   -20.0353     0.0000    60.0000 </r>
       <r>   -19.8459     0.0000    60.0000 </r>
       <r>   -19.6566     0.0000    60.0000 </r>
       <r>   -19.4672     0.0000    60.0000 </r>
       <r>   -19.2779     0.0000    60.0000 </r>
       <r>   -19.0885     0.0000    60.0000 </r>
       <r>   -18.8991     0.0000    60.0000 </r>
       <r>   -18.7098     0.0000    60.0000 </r>
       <r>   -18.5204     0.0000    60.0000 </r>
       <r>   -18.3311     0.0000    60.0000 </r>
       <r>   -18.1417     0.0000    60.0000 </r>
       <r>   -17.9523     0.0000    60.0000 </r>
       <r>   -17.7630     0.0000    60.0000 </r>
       <r>   -17.5736     0.0000    60.0000 </r>
       <r>   -17.3843     0.0000    60.0000 </r>
       <r>   -17.1949     0.0000    60.0000 </r>
       <r>   -17.0055     0.0000    60.0000 </r>
       <r>   -16.8162     0.0000    60.0000 </r>
       <r>   -16.6268     0.0000    60.0000 </r>
       <r>   -16.4375     0.0000    60.0000 </r>
       <r>   -16.2481     0.0000    60.0000 </r>
       <r>   -16.0587     0.0000    60.0000 </r>
       <r>   -15.8694     0.0000    60.0000 </r>
       <r>   -15.6800     0.0000    60.0000 </r>
       <r>   -15.4907     0.0000    60.0000 </r>
       <r>   -15.3013     0.0000    60.0000 </r>
       <r>   -15.1119     0.0000    60.0000 </r>
       <r>   -14.9226     0.0000    60.0000 </r>
       <r>   -14.7332     0.0000    60.0000 </r>
       <r>   -14.5439     0.0000    60.0000 </r>
       <r>   -14.3545     0.0000    60.0000 </r>
       <r>   -14.1651     0.0000    60.0000 </r>
       <r>   -13.9758     0.0013    60.0002 </r>
       <r>   -13.7864    10.1968    61.9311 </r>
       <r>   -13.5971    10.9138    63.9978 </r>
       <r>   -13.4077     0.8625    64.1611 </r>
       <r>   -13.2183    19.5346    67.8602 </r>
       <r>   -13.0290    11.2901    69.9981 </r>
       <r>   -12.8396    11.5789    72.1906 </r>
       <r>   -12.6503    19.7029    75.9216 </r>
       <r>   -12.4609     2.9321    76.4768 </r>
       <r>   -12.2715    18.6077    80.0004 </r>
       <r>   -12.0822    10.3666    81.9634 </r>
       <r>   -11.8928    10.7509    83.9992 </r>
       <r>   -11.7035    19.7971    87.7480 </r>
       <r>   -11.5141     1.3309    88.0000 </r>
       <r>   -11.3247     1.6014    88.3032 </r>
       <r>   -11.1354    12.3485    90.6415 </r>
       <r>   -10.9460     7.1739    92.0000 </r>
       <r>   -10.7567     1.4575    92.2760 </r>
       <r>   -10.5673     9.1108    94.0012 </r>
       <r>   -10.3779    13.2079    96.5022 </r>
       <r>   -10.1886     7.9100    98.0001 </r>
       <r>    -9.9992     9.7740    99.8509 </r>
       <r>    -9.8099     0.7874   100.0000 </r>
       <r>    -9.6205     2.1963   100.4159 </r>
       <r>    -9.4311    17.7474   103.7765 </r>
       <r>    -9.2418    11.7419   106.0000 </r>
       <r>    -9.0524     9.0636   107.7163 </r>
       <r>    -8.8631    12.0609   110.0001 </r>
       <r>    -8.6737    10.0255   111.8986 </r>
       <r>    -8.4843     0.5357   112.0000 </r>
       <r>    -8.2950     0.0038   112.0007 </r>
       <r>    -8.1056    19.1398   115.6250 </r>
       <r>    -7.9163    10.9434   117.6973 </r>
       <r>    -7.7269    19.4560   121.3815 </r>
       <r>    -7.5375     3.5655   122.0567 </r>
       <r>    -7.3482    10.2597   123.9994 </r>
       <r>    -7.1588     0.0030   124.0000 </r>
       <r>    -6.9695     0.0000   124.0000 </r>
       <r>    -6.7801     0.0000   124.0000 </r>
       <r>    -6.5907     5.0821   124.9623 </r>
       <r>    -6.4014     5.4798   126.0000 </r>
       <r>    -6.2120     0.0000   126.0000 </r>
       <r>    -6.0227     0.1774   126.0336 </r>
       <r>    -5.8333    10.3780   127.9988 </r>
       <r>    -5.6439     0.0065   128.0000 </r>
       <r>    -5.4546     0.1211   128.0229 </r>
       <r>    -5.2652    10.4299   129.9979 </r>
       <r>    -5.0759     0.0109   130.0000 </r>
       <r>    -4.8865     0.0000   130.0000 </r>
       <r>    -4.6971     0.0000   130.0000 </r>
       <r>    -4.5078     0.0000   130.0000 </r>
       <r>    -4.3184     0.0000   130.0000 </r>
       <r>    -4.1291     0.0000   130.0000 </r>
       <r>    -3.9397     0.0000   130.0000 </r>
       <r>    -3.7503     3.8066   130.7208 </r>
       <r>    -3.5610    11.6056   132.9185 </r>
       <r>    -3.3716    16.3238   136.0095 </r>
       <r>    -3.1822    10.5161   138.0009 </r>
       <r>    -2.9929    26.3750   142.9952 </r>
       <r>    -2.8035    15.7685   145.9812 </r>
       <r>    -2.6142    18.0667   149.4023 </r>
       <r>    -2.4248    38.0514   156.6077 </r>
       <r>    -2.2354    31.5222   162.5768 </r>
       <r>    -2.0461    28.3369   167.9426 </r>
       <r>    -1.8567    32.1345   174.0276 </r>
       <r>    -1.6674    38.4216   181.3032 </r>
       <r>    -1.4780    26.7067   186.3603 </r>
       <r>    -1.2886    44.0575   194.7031 </r>
       <r>    -1.0993    35.5053   201.4264 </r>
       <r>    -0.9099    34.7969   208.0155 </r>
       <r>    -0.7206    38.2036   215.2498 </r>
       <r>    -0.5312    33.3386   221.5628 </r>
       <r>    -0.3418    34.5143   228.0984 </r>
       <r>    -0.1525    32.8549   234.3198 </r>
       <r>     0.0369    30.0257   240.0055 </r>
       <r>     0.2262    43.5077   248.2441 </r>
       <r>     0.4156    40.3956   255.8934 </r>
       <r>     0.6050    35.6766   262.6492 </r>
       <r>     0.7943    35.2932   269.3323 </r>
       <r>     0.9837    26.6933   274.3869 </r>
       <r>     1.1730    32.2657   280.4968 </r>
       <r>     1.3624    18.0295   283.9108 </r>
       <r>     1.5518    31.5272   289.8808 </r>
       <r>     1.7411    14.9395   292.7098 </r>
       <r>     1.9305    28.8180   298.1668 </r>
       <r>     2.1198     9.6810   300.0000 </r>
       <r>     2.3092     0.0002   300.0000 </r>
       <r>     2.4986     0.0000   300.0000 </r>
       <r>     2.6879     0.0000   300.0000 </r>
       <r>     2.8773     0.0000   300.0000 </r>
       <r>     3.0666     0.0000   300.0000 </r>
       <r>     3.2560     0.0000   300.0000 </r>
       <r>     3.4454     0.0000   300.0000 </r>
       <r>     3.6347     0.0180   300.0034 </r>
       <r>     3.8241    11.5531   302.1911 </r>
       <r>     4.0134    10.2287   304.1280 </r>
       <r>     4.2028     9.8883   306.0005 </r>
       <r>     4.3922    15.0661   308.8534 </r>
       <r>     4.5815    20.0723   312.6543 </r>
       <r>     4.7709    17.7892   316.0229 </r>
       <r>     4.9602    20.2432   319.8561 </r>
       <r>     5.1496    19.4294   323.5353 </r>
       <r>     5.3390    12.4424   325.8914 </r>
       <r>     5.5283    23.8242   330.4027 </r>
       <r>     5.7177    18.9512   333.9913 </r>
       <r>     5.9070    10.3575   335.9526 </r>
       <r>     6.0964    14.9094   338.7759 </r>
       <r>     6.2858    12.8151   341.2025 </r>
       <r>     6.4751    26.6677   346.2523 </r>
       <r>     6.6645    28.1268   351.5784 </r>
       <r>     6.8538    16.3228   354.6693 </r>
       <r>     7.0432    22.8352   358.9934 </r>
       <r>     7.2326    24.1475   363.5660 </r>
       <r>     7.4219    13.1106   366.0486 </r>
       <r>     7.6113    10.3016   367.9993 </r>
       <r>     7.8006     0.0035   368.0000 </r>
       <r>     7.9900     0.0000   368.0000 </r>
       <r>     8.1794     0.0000   368.0000 </r>
       <r>     8.3687     0.0000   368.0000 </r>
       <r>     8.5581     0.0000   368.0000 </r>
       <r>     8.7474     0.0000   368.0000 </r>
       <r>     8.9368     0.0000   368.0000 </r>
       <r>     9.1262     0.0000   368.0000 </r>
       <r>     9.3155     0.0000   368.0000 </r>
       <r>     9.5049     0.0000   368.0000 </r>
       <r>     9.6942     0.0000   368.0000 </r>
       <r>     9.8836     0.0000   368.0000 </r>
       <r>    10.0730     0.0000   368.0000 </r>
      </set>
     </set>
    </array>
   </total>
   <partial>
    <array>
     <dimension dim="1">gridpoints</dimension>
     <dimension dim="2">spin</dimension>
     <dimension dim="3">ion</dimension>
     <field>energy</field>
     <field>    s</field>
     <field>   py</field>
     <field>   pz</field>
     <field>   px</field>
     <field>  dxy</field>
     <field>  dyz</field>
     <field>  dz2</field>
     <field>  dxz</field>
     <field>x2-y2</field>
     <set>
[...]
        <r>  0.0001  0.0005  0.0004  0.0000  0.0000  0.0000  0.0000  0.0000  0.0000 </r>
        <r>  0.0006  0.0016  0.0001  0.0016  0.0000  0.0000  0.0000  0.0000  0.0000 </r>
        <r>  0.0002  0.0008  0.0003  0.0014  0.0000  0.0000  0.0000  0.0000  0.0000 </r>
        <r>  0.0002  0.0004  0.0004  0.0002  0.0000  0.0000  0.0000  0.0000  0.0000 </r>
        <r>  0.0000  0.0005  0.0012  0.0002  0.0000  0.0000  0.0000  0.0000  0.0000 </r>
        <r>  0.0004  0.0002  0.0010  0.0009  0.0000  0.0000  0.0000  0.0000  0.0000 </r>
        <r>  0.0015  0.0011  0.0038  0.0001  0.0000  0.0000  0.0000  0.0000  0.0000 </r>
        <r>  0.0015  0.0012  0.0000  0.0008  0.0000  0.0000  0.0000  0.0000  0.0000 </r>
        <r>  0.0005  0.0036  0.0003  0.0017  0.0000  0.0000  0.0000  0.0000  0.0000 </r>
        <r>  0.0002  0.0004  0.0002  0.0001  0.0000  0.0000  0.0000  0.0000  0.0000 </r>
        <r>  0.0008  0.0005  0.0004  0.0003  0.0000  0.0000  0.0000  0.0000  0.0000 </r>
        <r>  0.0006  0.0003  0.0000  0.0004  0.0000  0.0000  0.0000  0.0000  0.0000 </r>
        <r>  0.0017  0.0044  0.0003  0.0001  0.0000  0.0000  0.0000  0.0000  0.0000 </r>
        <r>  0.0003  0.0017  0.0002  0.0004  0.0000  0.0000  0.0000  0.0000  0.0000 </r>
        <r>  0.0006  0.0003  0.0005  0.0015  0.0000  0.0000  0.0000  0.0000  0.0000 </r>
        <r>  0.0001  0.0002  0.0004  0.0001  0.0000  0.0000  0.0000  0.0000  0.0000 </r>
        <r>  0.0000  0.0001  0.0021  0.0004  0.0000  0.0000  0.0000  0.0000  0.0000 </r>
        <r>  0.0006  0.0002  0.0008  0.0001  0.0000  0.0000  0.0000  0.0000  0.0000 </r>
        <r>  0.0028  0.0002  0.0000  0.0001  0.0000  0.0000  0.0000  0.0000  0.0000 </r>
        <r>  0.0001  0.0005  0.0004  0.0006  0.0000  0.0000  0.0000  0.0000  0.0000 </r>
        <r>  0.0001  0.0001  0.0008  0.0006  0.0000  0.0000  0.0000  0.0000  0.0000 </r>
        <r>  0.0002  0.0003  0.0019  0.0003  0.0000  0.0000  0.0000  0.0000  0.0000 </r>
        <r>  0.0002  0.0002  0.0006  0.0008  0.0000  0.0000  0.0000  0.0000  0.0000 </r>
        <r>  0.0018  0.0001  0.0007  0.0000  0.0000  0.0000  0.0000  0.0000  0.0000 </r>
        <r>  0.0006  0.0001  0.0049  0.0004  0.0000  0.0000  0.0000  0.0000  0.0000 </r>
        <r>  0.0023  0.0007  0.0007  0.0008  0.0000  0.0000  0.0000  0.0000  0.0000 </r>
        <r>  0.0002  0.0019  0.0003  0.0027  0.0000  0.0000  0.0000  0.0000  0.0000 </r>
        <r>  0.0003  0.0010  0.0008  0.0013  0.0000  0.0000  0.0000  0.0000  0.0000 </r>
        <r>  0.0006  0.0042  0.0008  0.0004  0.0000  0.0000  0.0000  0.0000  0.0000 </r>
        <r>  0.0002  0.0007  0.0004  0.0004  0.0000  0.0000  0.0000  0.0000  0.0000 </r>
        <r>  0.0003  0.0011  0.0004  0.0006  0.0000  0.0000  0.0000  0.0000  0.0000 </r>
        <r>  0.0000  0.0012  0.0001  0.0011  0.0000  0.0000  0.0000  0.0000  0.0000 </r>
        <r>  0.0012  0.0014  0.0000  0.0001  0.0000  0.0000  0.0000  0.0000  0.0000 </r>
        <r>  0.0004  0.0007  0.0000  0.0001  0.0000  0.0000  0.0000  0.0000  0.0000 </r>
        <r>  0.0026  0.0001  0.0011  0.0009  0.0000  0.0000  0.0000  0.0000  0.0000 </r>
        <r>  0.0019  0.0000  0.0003  0.0006  0.0000  0.0000  0.0000  0.0000  0.0000 </r>
        <r>  0.0001  0.0003  0.0001  0.0006  0.0000  0.0000  0.0000  0.0000  0.0000 </r>
        <r>  0.0005  0.0006  0.0023  0.0024  0.0000  0.0000  0.0000  0.0000  0.0000 </r>
        <r>  0.0000  0.0013  0.0000  0.0007  0.0000  0.0000  0.0000  0.0000  0.0000 </r>
       </set>
       <set comment="band 183">
        <r>  0.0001  0.0012  0.0021  0.0005  0.0000  0.0000  0.0000  0.0000  0.0000 </r>
        <r>  0.0007  0.0000  0.0001  0.0000  0.0000  0.0000  0.0000  0.0000  0.0000 </r>
        <r>  0.0003  0.0001  0.0004  0.0010  0.0000  0.0000  0.0000  0.0000  0.0000 </r>
        <r>  0.0001  0.0015  0.0014  0.0001  0.0000  0.0000  0.0000  0.0000  0.0000 </r>
        <r>  0.0006  0.0016  0.0007  0.0004  0.0000  0.0000  0.0000  0.0000  0.0000 </r>
        <r>  0.0000  0.0003  0.0002  0.0016  0.0000  0.0000  0.0000  0.0000  0.0000 </r>
        <r>  0.0002  0.0002  0.0006  0.0001  0.0000  0.0000  0.0000  0.0000  0.0000 </r>
        <r>  0.0000  0.0010  0.0000  0.0015  0.0000  0.0000  0.0000  0.0000  0.0000 </r>
        <r>  0.0004  0.0006  0.0008  0.0005  0.0000  0.0000  0.0000  0.0000  0.0000 </r>
        <r>  0.0003  0.0022  0.0005  0.0005  0.0000  0.0000  0.0000  0.0000  0.0000 </r>
        <r>  0.0004  0.0002  0.0001  0.0000  0.0000  0.0000  0.0000  0.0000  0.0000 </r>
        <r>  0.0002  0.0003  0.0014  0.0017  0.0000  0.0000  0.0000  0.0000  0.0000 </r>
        <r>  0.0002  0.0004  0.0009  0.0004  0.0000  0.0000  0.0000  0.0000  0.0000 </r>
        <r>  0.0003  0.0006  0.0003  0.0000  0.0000  0.0000  0.0000  0.0000  0.0000 </r>
        <r>  0.0004  0.0005  0.0002  0.0009  0.0000  0.0000  0.0000  0.0000  0.0000 </r>
        <r>  0.0006  0.0009  0.0006  0.0004  0.0000  0.0000  0.0000  0.0000  0.0000 </r>
        <r>  0.0004  0.0007  0.0002  0.0005  0.0000  0.0000  0.0000  0.0000  0.0000 </r>
        <r>  0.0005  0.0002  0.0005  0.0010  0.0000  0.0000  0.0000  0.0000  0.0000 </r>
        <r>  0.0007  0.0007  0.0000  0.0001  0.0000  0.0000  0.0000  0.0000  0.0000 </r>
        <r>  0.0001  0.0000  0.0003  0.0008  0.0000  0.0000  0.0000  0.0000  0.0000 </r>
        <r>  0.0000  0.0008  0.0002  0.0003  0.0000  0.0000  0.0000  0.0000  0.0000 </r>
        <r>  0.0005  0.0001  0.0000  0.0003  0.0000  0.0000  0.0000  0.0000  0.0000 </r>
        <r>  0.0011  0.0008  0.0014  0.0000  0.0000  0.0000  0.0000  0.0000  0.0000 </r>
        <r>  0.0000  0.0022  0.0004  0.0007  0.0000  0.0000  0.0000  0.0000  0.0000 </r>
        <r>  0.0003  0.0004  0.0002  0.0005  0.0000  0.0000  0.0000  0.0000  0.0000 </r>
        <r>  0.0003  0.0002  0.0019  0.0003  0.0000  0.0000  0.0000  0.0000  0.0000 </r>
        <r>  0.0010  0.0020  0.0003  0.0019  0.0000  0.0000  0.0000  0.0000  0.0000 </r>
        <r>  0.0003  0.0002  0.0017  0.0019  0.0000  0.0000  0.0000  0.0000  0.0000 </r>
        <r>  0.0004  0.0005  0.0002  0.0003  0.0000  0.0000  0.0000  0.0000  0.0000 </r>
        <r>  0.0030  0.0006  0.0008  0.0004  0.0000  0.0000  0.0000  0.0000  0.0000 </r>
        <r>  0.0003  0.0002  0.0007  0.0002  0.0000  0.0000  0.0000  0.0000  0.0000 </r>
        <r>  0.0006  0.0004  0.0001  0.0009  0.0000  0.0000  0.0000  0.0000  0.0000 </r>
        <r>  0.0001  0.0027  0.0034  0.0001  0.0000  0.0000  0.0000  0.0000  0.0000 </r>
        <r>  0.0011  0.0022  0.0001  0.0000  0.0000  0.0000  0.0000  0.0000  0.0000 </r>
        <r>  0.0011  0.0014  0.0014  0.0010  0.0000  0.0000  0.0000  0.0000  0.0000 </r>
        <r>  0.0005  0.0002  0.0012  0.0002  0.0000  0.0000  0.0000  0.0000  0.0000 </r>
        <r>  0.0004  0.0005  0.0000  0.0034  0.0000  0.0000  0.0000  0.0000  0.0000 </r>
        <r>  0.0001  0.0005  0.0005  0.0003  0.0000  0.0000  0.0000  0.0000  0.0000 </r>
        <r>  0.0008  0.0010  0.0009  0.0005  0.0000  0.0000  0.0000  0.0000  0.0000 </r>
        <r>  0.0004  0.0011  0.0007  0.0004  0.0000  0.0000  0.0000  0.0000  0.0000 </r>
        <r>  0.0002  0.0004  0.0002  0.0000  0.0000  0.0000  0.0000  0.0000  0.0000 </r>
        <r>  0.0001  0.0014  0.0011  0.0000  0.0000  0.0000  0.0000  0.0000  0.0000 </r>
        <r>  0.0001  0.0004  0.0034  0.0011  0.0000  0.0000  0.0000  0.0000  0.0000 </r>
        <r>  0.0003  0.0018  0.0018  0.0002  0.0000  0.0000  0.0000  0.0000  0.0000 </r>
        <r>  0.0001  0.0001  0.0008  0.0033  0.0000  0.0000  0.0000  0.0000  0.0000 </r>
        <r>  0.0001  0.0003  0.0012  0.0002  0.0000  0.0000  0.0000  0.0000  0.0000 </r>
        <r>  0.0007  0.0052  0.0006  0.0004  0.0000  0.0000  0.0000  0.0000  0.0000 </r>
        <r>  0.0000  0.0003  0.0005  0.0018  0.0000  0.0000  0.0000  0.0000  0.0000 </r>
        <r>  0.0012  0.0004  0.0053  0.0001  0.0000  0.0000  0.0000  0.0000  0.0000 </r>
        <r>  0.0009  0.0007  0.0010  0.0000  0.0000  0.0000  0.0000  0.0000  0.0000 </r>
        <r>  0.0072  0.0003  0.0000  0.0027  0.0000  0.0000  0.0000  0.0000  0.0000 </r>
        <r>  0.0005  0.0005  0.0023  0.0001  0.0000  0.0000  0.0000  0.0000  0.0000 </r>
        <r>  0.0004  0.0009  0.0023  0.0006  0.0000  0.0000  0.0000  0.0000  0.0000 </r>
        <r>  0.0012  0.0007  0.0001  0.0016  0.0000  0.0000  0.0000  0.0000  0.0000 </r>
        <r>  0.0006  0.0008  0.0013  0.0001  0.0000  0.0000  0.0000  0.0000  0.0000 </r>
        <r>  0.0005  0.0014  0.0004  0.0000  0.0000  0.0000  0.0000  0.0000  0.0000 </r>
        <r>  0.0001  0.0002  0.0001  0.0001  0.0000  0.0000  0.0000  0.0000  0.0000 </r>
        <r>  0.0010  0.0002  0.0017  0.0005  0.0000  0.0000  0.0000  0.0000  0.0000 </r>
        <r>  0.0011  0.0002  0.0002  0.0008  0.0000  0.0000  0.0000  0.0000  0.0000 </r>
        <r>  0.0005  0.0000  0.0010  0.0000  0.0000  0.0000  0.0000  0.0000  0.0000 </r>
        <r>  0.0017  0.0004  0.0004  0.0002  0.0000  0.0000  0.0000  0.0000  0.0000 </r>
        <r>  0.0023  0.0001  0.0013  0.0005  0.0000  0.0000  0.0000  0.0000  0.0000 </r>
        <r>  0.0023  0.0002  0.0002  0.0011  0.0000  0.0000  0.0000  0.0000  0.0000 </r>
        <r>  0.0003  0.0000  0.0008  0.0029  0.0000  0.0000  0.0000  0.0000  0.0000 </r>
        <r>  0.0031  0.0004  0.0002  0.0006  0.0000  0.0000  0.0000  0.0000  0.0000 </r>
       </set>
       <set comment="band 184">
        <r>  0.0008  0.0014  0.0008  0.0009  0.0000  0.0000  0.0000  0.0000  0.0000 </r>
        <r>  0.0018  0.0001  0.0014  0.0001  0.0000  0.0000  0.0000  0.0000  0.0000 </r>
        <r>  0.0002  0.0010  0.0011  0.0001  0.0000  0.0000  0.0000  0.0000  0.0000 </r>
        <r>  0.0001  0.0005  0.0006  0.0000  0.0000  0.0000  0.0000  0.0000  0.0000 </r>
        <r>  0.0001  0.0010  0.0004  0.0003  0.0000  0.0000  0.0000  0.0000  0.0000 </r>
        <r>  0.0003  0.0000  0.0001  0.0002  0.0000  0.0000  0.0000  0.0000  0.0000 </r>
        <r>  0.0004  0.0006  0.0005  0.0003  0.0000  0.0000  0.0000  0.0000  0.0000 </r>
        <r>  0.0001  0.0004  0.0007  0.0022  0.0000  0.0000  0.0000  0.0000  0.0000 </r>
        <r>  0.0007  0.0002  0.0012  0.0000  0.0000  0.0000  0.0000  0.0000  0.0000 </r>
        <r>  0.0012  0.0001  0.0002  0.0003  0.0000  0.0000  0.0000  0.0000  0.0000 </r>
        <r>  0.0000  0.0006  0.0002  0.0000  0.0000  0.0000  0.0000  0.0000  0.0000 </r>
        <r>  0.0006  0.0001  0.0008  0.0014  0.0000  0.0000  0.0000  0.0000  0.0000 </r>
        <r>  0.0001  0.0010  0.0001  0.0005  0.0000  0.0000  0.0000  0.0000  0.0000 </r>
        <r>  0.0005  0.0019  0.0006  0.0001  0.0000  0.0000  0.0000  0.0000  0.0000 </r>
        <r>  0.0003  0.0007  0.0007  0.0003  0.0000  0.0000  0.0000  0.0000  0.0000 </r>
        <r>  0.0014  0.0055  0.0008  0.0028  0.0000  0.0000  0.0000  0.0000  0.0000 </r>
        <r>  0.0001  0.0006  0.0012  0.0007  0.0000  0.0000  0.0000  0.0000  0.0000 </r>
        <r>  0.0000  0.0006  0.0037  0.0002  0.0000  0.0000  0.0000  0.0000  0.0000 </r>
        <r>  0.0011  0.0002  0.0005  0.0008  0.0000  0.0000  0.0000  0.0000  0.0000 </r>
        <r>  0.0002  0.0004  0.0000  0.0004  0.0000  0.0000  0.0000  0.0000  0.0000 </r>
        <r>  0.0001  0.0006  0.0004  0.0024  0.0000  0.0000  0.0000  0.0000  0.0000 </r>
        <r>  0.0008  0.0007  0.0013  0.0007  0.0000  0.0000  0.0000  0.0000  0.0000 </r>
        <r>  0.0005  0.0000  0.0000  0.0001  0.0000  0.0000  0.0000  0.0000  0.0000 </r>
        <r>  0.0004  0.0001  0.0011  0.0004  0.0000  0.0000  0.0000  0.0000  0.0000 </r>
        <r>  0.0002  0.0011  0.0005  0.0001  0.0000  0.0000  0.0000  0.0000  0.0000 </r>
        <r>  0.0002  0.0015  0.0005  0.0000  0.0000  0.0000  0.0000  0.0000  0.0000 </r>
        <r>  0.0001  0.0008  0.0023  0.0002  0.0000  0.0000  0.0000  0.0000  0.0000 </r>
        <r>  0.0001  0.0013  0.0000  0.0021  0.0000  0.0000  0.0000  0.0000  0.0000 </r>
        <r>  0.0004  0.0002  0.0004  0.0025  0.0000  0.0000  0.0000  0.0000  0.0000 </r>
        <r>  0.0018  0.0001  0.0010  0.0008  0.0000  0.0000  0.0000  0.0000  0.0000 </r>
        <r>  0.0008  0.0001  0.0001  0.0003  0.0000  0.0000  0.0000  0.0000  0.0000 </r>
        <r>  0.0003  0.0004  0.0004  0.0009  0.0000  0.0000  0.0000  0.0000  0.0000 </r>
        <r>  0.0008  0.0002  0.0020  0.0000  0.0000  0.0000  0.0000  0.0000  0.0000 </r>
        <r>  0.0001  0.0039  0.0008  0.0005  0.0000  0.0000  0.0000  0.0000  0.0000 </r>
        <r>  0.0000  0.0008  0.0006  0.0003  0.0000  0.0000  0.0000  0.0000  0.0000 </r>
        <r>  0.0004  0.0019  0.0001  0.0011  0.0000  0.0000  0.0000  0.0000  0.0000 </r>
        <r>  0.0003  0.0005  0.0012  0.0001  0.0000  0.0000  0.0000  0.0000  0.0000 </r>
        <r>  0.0007  0.0005  0.0001  0.0004  0.0000  0.0000  0.0000  0.0000  0.0000 </r>
        <r>  0.0001  0.0012  0.0004  0.0007  0.0000  0.0000  0.0000  0.0000  0.0000 </r>
        <r>  0.0003  0.0001  0.0008  0.0001  0.0000  0.0000  0.0000  0.0000  0.0000 </r>
        <r>  0.0001  0.0002  0.0001  0.0000  0.0000  0.0000  0.0000  0.0000  0.0000 </r>
        <r>  0.0000  0.0012  0.0004  0.0004  0.0000  0.0000  0.0000  0.0000  0.0000 </r>
        <r>  0.0001  0.0017  0.0003  0.0004  0.0000  0.0000  0.0000  0.0000  0.0000 </r>
        <r>  0.0001  0.0010  0.0010  0.0000  0.0000  0.0000  0.0000  0.0000  0.0000 </r>
        <r>  0.0002  0.0022  0.0003  0.0011  0.0000  0.0000  0.0000  0.0000  0.0000 </r>
        <r>  0.0016  0.0001  0.0029  0.0002  0.0000  0.0000  0.0000  0.0000  0.0000 </r>
        <r>  0.0012  0.0041  0.0008  0.0015  0.0000  0.0000  0.0000  0.0000  0.0000 </r>
        <r>  0.0011  0.0007  0.0004  0.0014  0.0000  0.0000  0.0000  0.0000  0.0000 </r>
        <r>  0.0007  0.0000  0.0004  0.0004  0.0000  0.0000  0.0000  0.0000  0.0000 </r>
        <r>  0.0001  0.0002  0.0000  0.0015  0.0000  0.0000  0.0000  0.0000  0.0000 </r>
        <r>  0.0023  0.0004  0.0005  0.0009  0.0000  0.0000  0.0000  0.0000  0.0000 </r>
        <r>  0.0004  0.0002  0.0009  0.0007  0.0000  0.0000  0.0000  0.0000  0.0000 </r>
        <r>  0.0001  0.0003  0.0030  0.0019  0.0000  0.0000  0.0000  0.0000  0.0000 </r>
        <r>  0.0065  0.0002  0.0004  0.0002  0.0000  0.0000  0.0000  0.0000  0.0000 </r>
        <r>  0.0021  0.0003  0.0042  0.0004  0.0000  0.0000  0.0000  0.0000  0.0000 </r>
        <r>  0.0001  0.0041  0.0006  0.0022  0.0000  0.0000  0.0000  0.0000  0.0000 </r>
        <r>  0.0013  0.0008  0.0009  0.0015  0.0000  0.0000  0.0000  0.0000  0.0000 </r>
        <r>  0.0006  0.0005  0.0002  0.0001  0.0000  0.0000  0.0000  0.0000  0.0000 </r>
        <r>  0.0008  0.0009  0.0014  0.0008  0.0000  0.0000  0.0000  0.0000  0.0000 </r>
        <r>  0.0000  0.0007  0.0059  0.0003  0.0000  0.0000  0.0000  0.0000  0.0000 </r>
        <r>  0.0019  0.0001  0.0033  0.0005  0.0000  0.0000  0.0000  0.0000  0.0000 </r>
        <r>  0.0005  0.0004  0.0011  0.0013  0.0000  0.0000  0.0000  0.0000  0.0000 </r>
        <r>  0.0005  0.0003  0.0003  0.0016  0.0000  0.0000  0.0000  0.0000  0.0000 </r>
        <r>  0.0000  0.0001  0.0002  0.0029  0.0000  0.0000  0.0000  0.0000  0.0000 </r>
        <r>  0.0000  0.0005  0.0002  0.0006  0.0000  0.0000  0.0000  0.0000  0.0000 </r>
       </set>
      </set>
     </set>
    </set>
   </array>
  </projected>
 </calculation>
 <structure name="finalpos" >
  <crystal>
   <varray name="basis" >
    <v>      10.25000000       0.00000000       0.00000000 </v>
    <v>       0.00000000      10.25000000       0.00000000 </v>
    <v>       0.00000000       0.00000000      12.35000000 </v>
   </varray>
   <i name="volume">   1297.52187500 </i>
   <varray name="rec_basis" >
    <v>       0.09756098       0.00000000       0.00000000 </v>
    <v>       0.00000000       0.09756098       0.00000000 </v>
    <v>       0.00000000       0.00000000       0.08097166 </v>
   </varray>
  </crystal>
  <varray name="positions" >
   <v>       0.62779512       0.89425073       0.00458215 </v>
   <v>       0.73197268       0.56971805       0.61190040 </v>
   <v>       0.22999415       0.17411707       0.02878632 </v>
   <v>       0.15340488       0.72621854       0.20589879 </v>
   <v>       0.29852195       0.20803902       0.32432065 </v>
   <v>       0.19957366       0.04809532       0.66227530 </v>
   <v>       0.73414244       0.55904390       0.21522672 </v>
   <v>       0.51118927       0.07181824       0.30122915 </v>
   <v>       0.98254634       0.93267220       0.58073846 </v>
   <v>       0.93873854       0.40240780       0.22751822 </v>
   <v>       0.43212195       0.96609366       0.52588664 </v>
   <v>       0.89050439       0.58741171       0.00851806 </v>
   <v>       0.01430546       0.36397171       0.73419676 </v>
   <v>       0.29598244       0.52273951       0.59934494 </v>
   <v>       0.61723415       0.22965463       0.98614575 </v>
   <v>       0.85201268       0.18684293       0.82785425 </v>
   <v>       0.62387610       0.54000293       0.98940081 </v>
   <v>       0.46330049       0.40390634       0.43235951 </v>
   <v>       0.47608683       0.66063512       0.14753117 </v>
   <v>       0.20601366       0.74909756       0.86604049 </v>
   <v>       0.69731512       0.24015512       0.21923644 </v>
   <v>       0.96999707       0.69755902       0.73068016 </v>
   <v>       0.01885629       0.37132488       0.45515951 </v>
   <v>       0.90757561       0.20738634       0.04058575 </v>
   <v>       0.71942927       0.13510537       0.44924211 </v>
   <v>       0.54280000       0.63253951       0.77489636 </v>
   <v>       0.62474732       0.82067024       0.24893279 </v>
   <v>       0.70378341       0.03262937       0.77213684 </v>
   <v>       0.60069659       0.27846537       0.61539028 </v>
   <v>       0.88054537       0.86997561       0.03758777 </v>
   <v>       0.29042537       0.60738049       0.33795709 </v>
   <v>       0.28346732       0.46931220       0.88485830 </v>
   <v>       0.09519063       0.43240585       0.97993522 </v>
   <v>       0.19734537       0.71302244       0.48789474 </v>
   <v>       0.98715122       0.62111805       0.45438866 </v>
   <v>       0.36834634       0.10549366       0.80559109 </v>
   <v>       0.38381463       0.88763415       0.21947368 </v>
   <v>       0.43459415       0.91208780       0.82857490 </v>
   <v>       0.19848293       0.90734146       0.48087935 </v>
   <v>       0.85987610       0.73685073       0.54535223 </v>
   <v>       0.02585688       0.19540195       0.59163725 </v>
   <v>       0.49765659       0.61605366       0.33616680 </v>
   <v>       0.39620585       0.61682537       0.94947368 </v>
   <v>       0.17870537       0.38827805       0.13712955 </v>
   <v>       0.18190732       0.55669854       0.74799190 </v>
   <v>       0.77497366       0.37413854       0.07982275 </v>
   <v>       0.76991805       0.56724878       0.81674494 </v>
   <v>       0.07750254       0.24363610       0.90255061 </v>
   <v>       0.94962829       0.65216195       0.29100567 </v>
   <v>       0.08881473       0.21439707       0.18794899 </v>
   <v>       0.78471707       0.04707307       0.95357085 </v>
   <v>       0.83694341       0.12258049       0.61180486 </v>
   <v>       0.48368195       0.17724293       0.46342672 </v>
   <v>       0.68841756       0.72290829       0.08761943 </v>
   <v>       0.80220293       0.39948976       0.73697490 </v>
   <v>       0.45717659       0.18553171       0.14103077 </v>
   <v>       0.53660000       0.22128390       0.80548745 </v>
   <v>       0.54777659       0.85295512       0.68972308 </v>
   <v>       0.41202927       0.00787192       0.07991401 </v>
   <v>       0.24310244       0.42990537       0.41217571 </v>
   <v>       0.52465366       0.49649268       0.60934332 </v>
   <v>       0.79366049       0.34289756       0.37624696 </v>
   <v>       0.07889893       0.89984098       0.75987611 </v>
   <v>       0.74657756       0.02240556       0.28766397 </v>
   <v>       0.06990478       0.75747122       0.02791506 </v>
  </varray>
 </structure>
</modeling>
