LPSC                                    
           1
    10.250000    0.000000    0.000000
     0.000000   10.250000    0.000000
     0.000000    0.000000   12.350000
   Li   P    S    Cl
  30   5  25   5
Direct configuration=     1
   0.62779512  0.89425073  0.00458215
   0.73197268  0.56971805  0.61190040
   0.22999415  0.17411707  0.02878632
   0.15340488  0.72621854  0.20589879
   0.29852195  0.20803902  0.32432065
   0.19957366  0.04809532  0.66227530
   0.73414244  0.55904390  0.21522672
   0.51118927  0.07181824  0.30122915
   0.98254634  0.93267220  0.58073846
   0.93873854  0.40240780  0.22751822
   0.43212195  0.96609366  0.52588664
   0.89050439  0.58741171  0.00851806
   0.01430546  0.36397171  0.73419676
   0.29598244  0.52273951  0.59934494
   0.61723415  0.22965463  0.98614575
   0.85201268  0.18684293  0.82785425
   0.62387610  0.54000293  0.98940081
   0.46330049  0.40390634  0.43235951
   0.47608683  0.66063512  0.14753117
   0.20601366  0.74909756  0.86604049
   0.69731512  0.24015512  0.21923644
   0.96999707  0.69755902  0.73068016
   0.01885629  0.37132488  0.45515951
   0.90757561  0.20738634  0.04058575
   0.71942927  0.13510537  0.44924211
   0.54280000  0.63253951  0.77489636
   0.62474732  0.82067024  0.24893279
   0.70378341  0.03262937  0.77213684
   0.60069659  0.27846537  0.61539028
   0.88054537  0.86997561  0.03758777
   0.29042537  0.60738049  0.33795709
   0.28346732  0.46931220  0.88485830
   0.09519063  0.43240585  0.97993522
   0.19734537  0.71302244  0.48789474
   0.98715122  0.62111805  0.45438866
   0.36834634  0.10549366  0.80559109
   0.38381463  0.88763415  0.21947368
   0.43459415  0.91208780  0.82857490
   0.19848293  0.90734146  0.48087935
   0.85987610  0.73685073  0.54535223
   0.02585688  0.19540195  0.59163725
   0.49765659  0.61605366  0.33616680
   0.39620585  0.61682537  0.94947368
   0.17870537  0.38827805  0.13712955
   0.18190732  0.55669854  0.74799190
   0.77497366  0.37413854  0.07982275
   0.76991805  0.56724878  0.81674494
   0.07750254  0.24363610  0.90255061
   0.94962829  0.65216195  0.29100567
   0.08881473  0.21439707  0.18794899
   0.78471707  0.04707307  0.95357085
   0.83694341  0.12258049  0.61180486
   0.48368195  0.17724293  0.46342672
   0.68841756  0.72290829  0.08761943
   0.80220293  0.39948976  0.73697490
   0.45717659  0.18553171  0.14103077
   0.53660000  0.22128390  0.80548745
   0.54777659  0.85295512  0.68972308
   0.41202927  0.00787192  0.07991401
   0.24310244  0.42990537  0.41217571
   0.52465366  0.49649268  0.60934332
   0.79366049  0.34289756  0.37624696
   0.07889893  0.89984098  0.75987611
   0.74657756  0.02240556  0.28766397
   0.06990478  0.75747122  0.02791506
