ITEM: TIMESTEP
0
ITEM: NUMBER OF ATOMS
208
ITEM: BOX BOUNDS pp pp pp
0.0000000000000000e+00 1.6026081999999999e+01
0.0000000000000000e+00 1.6100000000000001e+01
0.0000000000000000e+00 1.6425367000000001e+01
ITEM: ATOMS id type x y z fx fy fz
7 1 3.8881 0.69455 0.79182 -0.364468 0.182398 -0.0368479
36 1 1.16169 2.58912 2.09403 0.0679152 -0.294237 0.150205
198 4 2.27568 2.69111 0.02067 0.353338 0.188972 0.217818
9 1 1.86208 0.10337 5.91428 -0.047232 0.36184 -0.477199
50 1 0.13519 3.43725 4.51266 0.418561 0.168138 0.484421
123 3 2.06719 2.09147 4.4093 -0.925229 -0.648029 -0.234228
44 1 3.82062 0.31898 12.2038 0.207716 -0.310729 -0.166884
94 1 3.24878 2.92708 10.6443 -0.151496 0.0991127 -0.147801
75 1 1.97898 2.77401 13.8859 0.440046 -0.154387 -0.179609
189 3 0.02448 3.46133 12.7506 0.217045 0.26873 0.819362
124 3 3.81922 5.53389 3.01408 -1.22629 -0.973834 0.526674
51 1 2.64736 4.23863 4.91466 1.25489 0.572463 -0.227993
53 1 2.22251 7.56936 5.35944 0.643855 0.764668 0.0888615
60 1 1.80248 6.33568 7.73269 -0.101654 0.562052 -0.253769
185 3 0.96484 5.70143 5.56291 -0.0364187 -0.216036 -0.173031
195 4 3.9797 7.44925 7.02577 -0.832267 0.104382 -0.46715
21 1 2.74828 7.3408 11.2047 -0.332989 1.33804 0.0758823
29 1 1.04551 5.10279 11.4643 0.362822 -0.377144 0.387423
134 3 0.59908 7.1985 12.3122 -0.645526 -0.33036 0.514447
143 3 0.79565 8.02117 9.29961 -0.636606 0.263805 2.56736
200 4 1.77087 4.12295 9.47599 -0.351725 0.501964 -0.854794
73 1 0.10427 5.49927 14.3682 -0.675341 -0.479063 -0.715791
78 1 3.23899 7.39809 15.6303 0.270108 -0.25545 0.602607
181 3 3.58042 7.50475 13.4856 -0.133605 -0.279092 -0.341429
205 4 1.04076 6.75312 16.167 -0.397474 -0.352716 -0.631764
56 1 1.98736 9.66134 1.27109 -0.220931 0.0819756 0.169805
169 3 2.72343 9.47626 3.61049 -0.400995 0.0779019 0.26526
201 4 1.49419 11.8745 1.10867 -0.433966 -0.422987 0.00657521
58 1 0.86139 11.5253 4.90317 0.362898 -0.336054 0.383888
131 3 0.98885 9.41179 6.39851 -0.0448852 0.499982 -1.63676
172 3 3.79561 11.5775 6.15313 0.155329 -0.644192 0.0827719
18 1 2.89604 11.3266 10.1609 -0.0561218 0.187401 0.757907
104 2 1.57531 9.72031 8.55298 1.0384 0.660313 -0.887908
141 3 0.6114 11.4905 9.24486 0.381033 -0.798554 0.473526
11 1 1.51648 11.1205 14.9988 -0.215812 0.389681 -0.243705
26 1 1.17167 8.23412 14.3491 0.281131 0.0460044 -0.669557
27 1 3.80445 9.83682 13.5665 -0.278315 -0.124836 0.212506
144 3 2.67657 11.6555 12.7341 0.293758 0.0713533 -0.298318
159 3 3.83083 9.77272 16.1664 0.904026 -0.687554 0.250996
10 1 3.87835 12.1583 0.67928 -0.104784 -0.28274 0.892142
77 1 1.65914 14.1746 1.02855 -1.04034 0.2414 0.409511
178 3 3.6501 14.516 0.05653 0.24528 -0.178106 0.0776866
8 1 3.49327 13.3822 4.58917 0.0486984 0.871065 0.483773
67 1 1.02115 13.3643 7.48365 -0.351915 -1.48108 0.50926
125 3 3.94162 15.4892 6.53095 -0.0702995 0.0564236 0.0299502
202 4 1.34768 13.7236 4.55499 -0.861795 -0.49713 -0.108579
64 1 1.29376 13.2389 11.9475 -0.842941 0.425688 0.478624
100 2 3.37054 15.3018 8.61054 1.39162 0.183626 -0.597577
128 3 1.38009 15.4507 8.75979 -0.14883 -0.354079 -0.31174
65 1 3.17739 13.9133 14.1921 0.23801 -0.0905069 -0.365335
203 4 1.74456 15.3827 12.8078 0.360922 0.492496 0.328929
32 1 5.68394 2.34458 2.49201 0.0199872 0.271553 -0.381907
182 3 5.96763 2.99448 0.18131 -0.555605 -0.571489 1.40513
194 4 5.89136 0.07349 2.66464 -0.305021 0.260933 -0.751591
43 1 7.67295 3.28595 5.65429 0.23639 0.500006 -0.0595141
45 1 4.98895 1.37674 5.95282 0.956278 0.659796 -0.536798
89 1 7.49726 0.21048 4.15854 0.661793 0.388554 -0.0490339
145 3 7.54889 1.03373 6.38063 -0.480025 -0.0518034 0.442156
47 1 6.69393 0.48406 8.47266 -0.0262469 -0.292408 -0.0717153
91 1 6.31927 3.45865 11.7025 0.366274 -0.00363848 -0.147079
126 3 4.50035 0.68628 9.58391 -0.261137 0.467303 0.983037
139 3 6.74917 3.79311 9.38783 -0.169697 -0.0356643 -0.676314
192 3 7.67207 2.05717 10.1366 0.627728 0.15788 0.108583
33 1 7.49839 1.20957 16.2485 -0.559515 -0.40944 0.982931
61 1 6.84868 0.21801 12.3775 0.172727 0.82149 -0.37235
74 1 6.06361 3.01562 14.2252 0.69355 -0.0918893 0.0452349
184 3 4.23937 2.94709 12.7287 -0.46996 -0.00724678 0.336296
31 1 4.05153 4.52315 0.72945 0.166008 0.161775 0.329533
34 1 7.0017 4.96235 0.89905 0.113968 -0.0400851 -0.624535
54 1 4.5367 7.76175 3.27334 -0.417541 0.669502 -0.716696
99 2 5.58161 4.70574 3.74925 0.812244 -0.163722 0.836502
121 3 6.65896 6.5005 3.12974 0.941904 0.390341 -0.186323
49 1 6.04291 6.74216 6.43242 -0.168865 0.012301 -0.241442
122 3 5.53599 4.62155 5.8426 0.316363 -0.977675 -0.844875
13 1 6.03207 7.82237 9.96967 1.11149 0.357228 0.225396
138 3 7.43587 6.89155 8.4192 1.33776 -1.441 0.0374615
208 4 4.57568 6.00792 10.5949 0.364977 0.53404 -0.328442
25 1 5.79296 7.87146 14.3943 -0.310945 -0.321076 -0.204762
76 1 4.70362 5.5273 12.7386 -0.440479 -0.666596 1.23211
112 2 7.94498 6.66126 13.7744 0.60886 -1.25558 -1.77394
160 3 5.29574 6.61438 16.3766 -0.871922 -0.308193 0.893905
173 3 7.99779 4.52441 13.14 -0.53658 0.751449 -1.3948
83 1 6.84529 11.5452 3.89823 0.699571 0.125269 0.324163
108 2 5.45205 8.48522 0.83269 0.380311 0.76734 -1.04941
16 1 5.73668 10.3665 7.07777 -0.303386 0.337305 -0.722308
111 2 4.22653 10.6724 4.2869 0.179475 -0.273287 0.583624
157 3 5.87428 9.3691 4.56691 -0.5692 0.760456 0.764732
142 3 5.59778 10.367 9.45065 -0.191619 0.234137 0.622386
179 3 6.99516 11.6748 10.1914 -0.170345 0.0614388 0.220884
28 1 6.47818 11.0983 15.0135 -0.0559918 -0.248554 0.634931
158 3 7.27646 9.09001 16.3264 -0.21468 0.369672 0.172933
197 4 6.05044 10.1953 13.0494 -0.12561 -0.191037 -0.381941
170 3 4.85296 12.2034 3.06528 -1.0457 -0.633353 -1.01176
12 1 5.263 13.4754 6.88833 0.408022 -0.23412 0.0976192
171 3 7.41753 12.9467 6.09788 -0.827657 -0.223192 0.393896
63 1 5.88751 14.4608 10.7043 -0.648198 0.112224 -0.43054
66 1 4.97834 12.2072 12.1661 0.26927 0.252747 0.0507825
127 3 4.22488 13.4893 9.09814 0.005385 -0.642459 1.09133
22 1 7.975 14.485 14.3538 -0.859842 0.0715559 -0.621972
62 1 5.06345 15.4704 15.2305 0.408756 -0.0833484 -1.01297
187 3 5.44513 14.6299 12.9752 -0.306472 -0.331851 0.504667
146 3 11.2778 1.64945 2.37549 -0.396457 -0.76909 0.397383
148 3 9.34157 3.80006 3.87645 -0.469506 -1.07966 1.17001
162 3 11.9516 3.43858 1.93356 -0.155666 -0.604806 0.036539
81 1 11.2743 3.73127 5.207 0.988143 0.316062 -0.641057
95 1 9.42919 1.68364 7.81047 -0.344981 -0.629116 0.0405523
105 2 9.7651 1.7702 4.19608 0.41757 0.518104 -1.4698
147 3 11.0149 1.32674 5.83415 -0.820685 0.540489 -0.619039
93 1 9.41061 1.77159 12.0359 -0.307712 -0.40618 -0.115753
113 3 11.2393 0.81316 9.26267 0.337269 0.799843 -0.887126
39 1 10.135 0.20731 15.2245 -0.443939 0.348991 -0.33261
96 1 10.0095 3.13633 13.9979 -0.843612 -0.254529 -0.0407672
175 3 8.12916 1.30457 14.1204 1.24058 -0.188738 -1.26079
183 3 11.6619 3.59037 12.4485 0.580838 -0.188027 -0.73034
35 1 10.3908 6.10596 3.26423 -0.151164 0.619339 -0.211631
79 1 9.44629 7.04312 6.64126 -0.86629 -0.338068 -0.320047
132 3 10.8727 5.12037 7.02988 0.139628 0.0798281 0.0353024
140 3 9.00937 4.22812 7.4247 1.38507 0.41512 0.723248
190 3 8.31312 7.00408 4.29306 -0.385582 -0.390165 -0.106135
40 1 9.86152 5.1161 11.5968 -1.51512 -0.792639 0.65883
103 2 8.33387 5.17871 9.26015 -2.60744 0.645353 -0.16778
136 3 10.8738 7.77942 9.17531 -0.0815458 0.20845 0.157811
174 3 11.3345 6.52126 10.751 1.09821 0.679727 -0.462656
42 1 11.9655 5.21766 14.1459 0.514438 -0.462576 0.589242
110 2 10.8584 7.47108 16.1826 -0.500669 0.714677 0.0112492
166 3 9.43918 5.94031 15.4226 0.253219 3.10846 1.52914
176 3 8.91512 7.79608 12.3805 -0.49027 -1.2569 -0.436048
2 1 9.29928 10.8046 0.09668 0.00282423 -0.0943044 0.213046
3 1 10.6345 10.2533 3.30624 0.865983 -0.20591 0.379107
80 1 8.24728 9.15073 1.95182 0.566938 -0.0392633 0.990017
165 3 10.481 8.10973 1.72644 -0.697188 -1.00631 -0.910269
177 3 8.84341 11.4343 2.72611 -0.509977 -0.186032 -1.12966
82 1 8.38042 9.43963 4.9869 0.366739 0.243787 0.143681
87 1 10.4717 10.5173 6.72121 0.201481 0.183251 0.34289
118 3 11.4955 11.9917 4.94786 0.392971 -0.741763 -0.425716
120 3 8.12429 11.1349 6.99547 -0.0733655 -1.35036 -1.41623
130 3 10.7197 8.38679 5.00559 -0.428502 0.828356 0.644845
98 2 10.0537 11.0603 10.2386 -0.0278551 0.0541086 -0.383604
117 3 10.9484 10.9099 12.0854 -1.20178 0.673524 -1.93183
137 3 9.35202 9.18591 9.44427 1.13098 1.22279 0.38624
17 1 11.4341 8.55392 12.5465 -0.188776 -0.762199 0.112946
30 1 8.18763 10.3256 12.3592 0.541292 -0.0551272 0.561954
168 3 11.1681 9.16609 15.0142 -0.319715 -0.866082 0.894015
1 1 11.0515 13.1999 2.94224 0.316533 0.199664 0.372857
86 1 8.32539 13.6218 2.02445 0.480214 0.688172 0.0725493
191 3 9.4179 14.8654 3.91924 0.115171 -0.0696932 -1.50613
193 4 8.48438 15.0295 0.05385 0.477411 -0.235215 0.77053
5 1 9.27535 12.7084 4.6457 0.457824 -0.38942 0.227566
88 1 11.2677 14.9307 5.19409 0.561067 0.0649453 0.342603
90 1 8.87687 15.0203 6.17818 -0.462444 0.722054 0.350405
114 3 10.6845 14.0565 7.58049 0.622563 -0.00200164 -0.688333
14 1 8.4086 12.8256 8.57176 0.888366 1.01237 -0.108851
97 2 11.2038 14.9155 9.31932 0.53347 0.827823 0.0679622
115 3 9.57203 14.1795 10.5239 -0.0309184 -0.898616 0.676507
119 3 8.10193 15.4834 10.2428 -1.7526 -0.0242703 0.652591
15 1 11.9236 13.5373 12.5973 -0.335661 0.530859 -0.774713
150 3 10.8983 15.9228 12.812 -0.428555 0.572085 0.561415
196 4 8.46032 12.1147 14.6597 0.33686 -0.644527 -0.396569
37 1 12.8859 1.75065 7.71765 -0.648193 -0.441001 0.468539
85 1 13.3617 0.77861 4.45301 -0.804367 -0.730177 -0.864724
161 3 13.8606 2.95519 4.65634 -0.064816 1.37925 1.62875
207 4 14.1974 0.47588 6.58339 0.890722 -0.220858 1.07063
46 1 15.7111 3.0666 10.5047 0.115736 -0.443021 -0.0616844
72 1 12.2549 1.36099 11.5894 -0.857905 0.952358 -0.0303242
199 4 14.1716 3.48932 8.90813 -0.452572 -0.00952775 0.397647
41 1 13.8799 2.91948 13.3969 0.192757 0.295355 -0.081212
106 2 12.5325 0.09978 14.0013 -0.109859 -1.76918 -0.329118
149 3 12.0714 1.55893 15.3873 0.666491 -0.187263 0.0479586
152 3 14.199 0.57733 12.8423 -0.377899 -0.0897658 0.753777
52 1 15.4749 6.44263 3.9345 -0.739925 0.125936 -0.560466
57 1 12.8633 7.46315 1.9828 0.243173 -0.177181 -0.383534
109 2 13.5938 4.14124 3.11633 0.490519 -0.219229 -0.954679
163 3 15.2913 4.23543 2.05739 -0.0495269 0.655838 -0.247472
164 3 12.9561 5.98789 3.74063 -0.00756659 -0.668361 0.977557
48 1 15.264 5.23104 6.8222 -0.500631 0.612783 0.890872
84 1 12.3346 7.04345 5.86134 0.04391 -0.359792 0.0680485
129 3 14.2052 7.41046 7.17257 0.987354 0.721058 -1.02108
38 1 13.2442 4.87447 10.8725 -0.862973 -0.0428977 0.185569
102 2 14.5523 7.05726 11.9436 0.261378 0.0746519 -0.256507
20 1 14.8361 7.74994 15.9215 -0.127582 0.290213 0.00807643
133 3 13.807 6.77458 13.8814 0.367201 -0.361764 -0.705786
167 3 12.439 6.30781 16.3617 1.91316 0.0463552 1.13876
59 1 15.1956 10.7224 0.98017 0.477889 -0.571564 -0.480941
154 3 14.6665 9.36647 3.92418 -1.17707 -0.622947 1.28154
186 3 15.412 8.38467 2.1496 0.526936 0.583103 -0.115474
55 1 12.5294 9.79969 5.13192 0.536903 0.107581 0.136375
101 2 14.9592 9.04831 6.09688 -0.857634 0.33991 0.819971
70 1 14.4121 11.8667 8.70116 0.449628 0.0781015 -0.57376
92 1 13.1624 8.51343 9.305 0.404667 0.25992 -1.52099
135 3 13.8431 9.08953 11.4623 -0.102567 -1.21114 0.812602
206 4 12.4559 10.6623 8.45577 -0.201574 0.562784 -0.577441
23 1 15.7677 10.02 12.5232 0.096893 0.782084 -0.320509
24 1 13.5524 9.20513 14.0202 -0.0423855 0.00123725 0.214098
180 3 15.5408 9.89567 14.9734 -0.222765 0.655552 0.339819
4 1 13.1869 15.7261 0.44673 -0.407669 0.195262 -0.232984
107 2 14.5299 13.6727 1.93726 1.27332 0.496844 -0.629545
153 3 13.1778 15.0703 2.73073 -0.56238 -1.09189 -0.71424
155 3 15.5162 14.8759 0.34169 -1.11484 -0.680526 0.577338
156 3 13.4286 12.2007 0.8585 0.489515 0.535693 0.674513
68 1 14.0868 14.6763 7.92176 0.435034 0.55158 0.311496
69 1 13.6949 13.0444 4.49369 0.545786 -0.34378 -0.0720565
71 1 12.5837 12.6196 6.93055 -0.0742532 -0.586372 -0.150481
188 3 14.8694 13.0288 6.59039 -0.576708 -0.733815 0.221149
116 3 12.91 14.1564 10.1463 0.271204 -1.09084 -0.414458
6 1 14.33 12.2669 14.971 0.142367 -0.648506 -0.0943579
19 1 15.2396 14.9049 14.294 -0.100064 -0.257833 -0.3378
151 3 12.6889 14.236 14.8224 0.912166 1.74779 0.511859
204 4 15.1116 12.8654 12.7574 0.359341 0.530762 0.607539
ITEM: TIMESTEP
20
ITEM: NUMBER OF ATOMS
208
ITEM: BOX BOUNDS pp pp pp
0.0000000000000000e+00 1.6026081999999999e+01
0.0000000000000000e+00 1.6100000000000001e+01
0.0000000000000000e+00 1.6425367000000001e+01
ITEM: ATOMS id type x y z fx fy fz
7 1 3.74739 0.796482 0.720458 -0.212256 -0.44476 -0.483117
36 1 1.0623 2.63583 2.01911 0.120281 0.0452247 0.295787
50 1 0.0291405 3.47006 4.46848 1.03102 0.135148 0.741094
123 3 1.95111 2.18776 4.32585 -0.302766 -0.26896 -0.427837
94 1 3.11056 3.03985 10.6691 0.362956 -0.565926 -0.284465
75 1 2.18367 2.60595 13.8245 -1.09844 0.112395 0.409113
189 3 0.0363269 3.47427 12.9291 0.418581 -0.568267 -1.50269
198 4 2.38553 2.64678 16.3664 0.0957331 -0.250368 0.00196777
124 3 3.82069 5.49731 3.03021 -0.499392 -0.454012 0.259522
51 1 2.9731 4.45706 5.06789 -0.47034 -0.837829 -0.354641
53 1 2.13031 7.80924 5.27777 0.0243269 -1.34551 -0.436723
60 1 1.75609 6.63816 7.669 0.745127 -0.143851 0.101912
185 3 0.949239 5.65227 5.55941 -0.0916073 1.18113 -0.170122
195 4 3.92868 7.34932 7.12076 -1.09168 0.841412 -1.32317
21 1 2.55742 7.6264 11.1846 0.805091 -0.439568 0.0838737
29 1 1.08078 5.0784 11.329 -0.515645 0.0159584 0.607476
200 4 1.6134 4.05152 9.48906 -0.391293 0.472366 -0.644538
143 3 0.851746 7.97264 9.43965 1.1052 0.97765 -0.340189
205 4 1.04956 6.81516 15.9875 0.805184 0.0745409 0.246724
78 1 3.38754 7.32887 15.6312 -0.500989 0.000120474 0.0577441
181 3 3.66334 7.54767 13.3598 -0.98621 -0.511098 -0.306542
134 3 0.426514 7.07827 12.4419 1.32527 0.779529 -0.847182
56 1 1.70282 9.32937 1.38245 0.698409 0.548481 -0.23852
169 3 2.70485 9.49738 3.62782 0.112021 -0.515341 -0.173004
201 4 1.39681 11.8122 1.09454 0.25822 -0.388216 -0.492862
10 1 3.65947 11.938 0.906982 0.675409 0.564508 -0.889018
58 1 1.41701 11.2657 4.9036 -1.17176 0.564487 -0.937505
131 3 1.06725 9.46049 6.37783 -0.667429 0.149261 1.74078
172 3 3.86779 11.4067 6.22433 -1.52191 1.62118 -1.65944
18 1 2.56024 11.4439 10.3816 0.907911 0.0922582 -0.101252
104 2 1.60425 9.69367 8.47651 -0.273352 -0.828165 3.24255
141 3 0.538787 11.4166 9.31331 0.422116 -1.06548 -0.937129
23 1 0.0979973 10.1341 12.236 -0.488929 0.158058 0.468634
11 1 1.60629 11.1455 14.7694 -0.508936 -9.76204e-05 -0.0768457
26 1 1.29942 8.22328 14.2727 -0.360067 0.198956 -0.157099
27 1 3.77599 9.84527 13.5073 0.958814 -0.244195 0.407323
144 3 2.69593 11.6 12.6663 -0.00455098 0.145854 0.383699
159 3 3.90918 9.79016 16.147 -0.629372 -0.939387 0.412148
178 3 3.67524 14.4273 0.037767 -0.135992 -0.398219 0.26219
77 1 1.49674 14.0895 0.841944 1.45948 -0.0910481 0.399651
8 1 3.45508 13.7487 4.68367 0.164628 0.191537 0.187472
67 1 0.617657 13.2853 7.49917 2.08505 0.933223 0.403629
125 3 3.92228 15.579 6.63211 0.495107 -0.362538 -0.997622
202 4 1.28909 13.7017 4.54729 -0.468391 -0.598446 -0.0266922
9 1 1.88284 16.0962 5.9035 -0.0518346 0.281687 -0.632626
64 1 1.34729 13.42 12.0949 0.562439 -1.31331 -1.0605
100 2 3.41205 15.4269 8.68133 0.577875 -2.10892 -1.62328
128 3 1.34876 15.359 8.68849 0.353409 -0.419808 0.147546
65 1 3.43667 13.6547 14.0948 0.0595372 0.337639 0.46015
203 4 1.69922 15.2688 12.7344 0.0567819 2.20215 0.918643
32 1 5.61697 2.79703 2.40992 0.735767 -0.323895 0.0011458
182 3 6.07847 2.90261 0.0103057 -0.881867 1.09638 1.27814
194 4 5.9337 0.202492 2.65258 0.000999528 0.882827 -0.25851
89 1 7.53876 0.363101 4.03524 0.532658 -0.00713425 0.52603
33 1 7.41598 1.1442 0.296581 -0.195478 -0.122341 -0.0332667
43 1 7.62591 3.46503 5.74344 0.46472 0.0236378 -0.387973
45 1 5.20839 1.41985 5.6093 -0.219446 -0.428152 0.288094
145 3 7.52277 1.14301 6.4232 -0.222745 -0.0472915 0.325507
44 1 4.02596 0.0535372 12.0496 -1.3937 0.506539 -0.448111
91 1 6.15866 3.58046 11.5172 -0.623922 -0.0306244 1.31602
126 3 4.47988 0.765616 9.48412 0.431259 1.26681 1.50559
139 3 6.7852 3.85824 9.45367 -1.92676 0.277791 0.0654728
192 3 7.59944 2.17587 10.2635 0.270061 -1.47493 -0.817336
61 1 7.01152 0.287678 12.2893 -0.711967 0.453579 0.247134
184 3 4.16862 2.80835 12.6999 0.705063 0.379479 -0.0396802
74 1 6.08415 2.86233 14.0646 0.488851 -0.257925 0.307271
31 1 4.39185 4.45174 0.827084 -0.136127 0.815451 -0.134018
34 1 6.89086 5.16273 0.686696 0.639921 -0.827251 -0.461783
54 1 4.45217 7.88253 3.10459 -0.371052 -0.47061 0.454564
99 2 5.59655 4.7435 3.80895 0.473095 -0.485662 -1.6606
121 3 6.73546 6.45286 3.03137 0.482545 0.342424 0.550242
160 3 5.3006 6.68673 0.1002 -0.439901 -1.38932 -0.835517
49 1 6.10085 6.65564 6.4791 -0.224325 0.590469 0.342202
122 3 5.51809 4.59435 5.79774 0.179663 -0.663212 0.0186632
13 1 6.10852 7.79277 10.0054 -0.930646 -0.483965 -0.0687857
138 3 7.64804 6.90727 8.48172 -1.69584 0.705704 -1.0803
208 4 4.42097 6.10978 10.4337 0.16942 0.620859 0.641016
25 1 5.66074 7.6777 14.4288 -0.119371 -0.0339129 -0.212584
76 1 4.58417 5.33048 12.8969 -0.628402 0.355498 -0.652929
83 1 6.87364 11.4957 3.91184 -0.338866 0.660747 0.290458
108 2 5.46044 8.47025 0.819494 0.607496 2.2674 1.11177
16 1 5.41313 10.3711 7.13102 1.00955 -0.572529 -0.00263899
111 2 4.32028 10.6727 4.13166 -0.729627 -0.138178 2.75763
157 3 5.89783 9.39335 4.63656 0.016336 -0.919409 -1.0331
142 3 5.5777 10.4417 9.58191 0.299051 -0.13826 -0.41276
179 3 6.94326 11.6737 10.3159 1.19417 0.778743 -0.651775
66 1 5.12952 12.0327 12.2225 -0.302633 -0.0140191 -0.10691
28 1 6.737 11.3565 15.1026 -1.11706 -0.592157 0.25188
158 3 7.19524 9.13074 16.249 1.91879 0.485917 0.362782
197 4 6.1363 10.2381 12.9633 0.051853 -0.661707 1.71924
170 3 4.8529 12.2094 3.04862 -1.01751 0.650881 -0.410085
12 1 5.36513 13.5986 7.04938 -0.906076 -0.134072 -0.367526
171 3 7.3003 12.7859 5.99894 0.128795 1.27762 0.802175
63 1 6.14167 14.2805 10.4585 -0.697288 -0.104647 0.842457
127 3 4.47306 13.4514 9.19961 -2.65088 0.588844 -0.553512
47 1 6.57476 15.9331 8.25643 -0.030358 1.29533 0.558734
187 3 5.3998 14.6994 12.9233 1.24041 -1.60534 -0.331472
62 1 5.19937 15.1372 15.0601 0.182365 0.7584 0.255984
146 3 11.1239 1.67772 2.44173 0.2824 -1.2665 0.954753
148 3 9.39733 3.81869 3.9767 -0.632626 -0.00748797 1.5873
162 3 11.909 3.46879 1.86039 -0.379307 -0.294169 0.318268
81 1 11.478 3.75259 5.11439 -0.44158 0.125401 1.13925
95 1 9.4452 1.60127 7.81471 -0.349707 0.116555 -0.17429
105 2 9.75412 1.76951 4.22025 0.102901 0.75203 -2.39963
147 3 10.859 1.36459 5.80915 1.73428 -0.732979 0.570554
93 1 9.25458 1.60632 11.8263 -0.707184 -0.0940715 0.605242
113 3 11.1571 0.771334 9.27284 -0.066328 1.3403 0.261515
72 1 11.8511 1.68512 11.5076 0.339581 -1.2926 -0.300134
39 1 10.0485 0.102844 15.3758 -0.799385 0.537147 -0.726693
96 1 9.90955 3.06757 14.0695 -0.313974 0.190176 0.047691
175 3 8.11673 1.41247 14.1687 0.416428 -0.53791 -0.369148
183 3 11.5985 3.78026 12.4096 0.210795 -0.350093 0.0038008
149 3 12.0128 1.62238 15.3642 1.53844 -1.01968 -0.563609
35 1 10.0909 6.19971 3.05014 1.07226 -0.850565 0.487173
79 1 9.24356 6.76416 6.40814 0.0179896 0.353363 0.311959
132 3 10.848 5.07615 7.11573 0.763239 -0.0117538 -1.11185
140 3 8.99896 4.28437 7.72741 2.65578 -1.1469 -3.18289
190 3 8.46553 6.97829 4.21171 -1.9237 0.420722 0.282473
40 1 9.24583 5.00247 11.2563 1.27696 -0.526998 -0.196311
103 2 8.40094 5.20594 9.34819 -0.0131872 1.49014 1.86277
136 3 10.7967 7.88649 9.03759 0.0783107 0.0846275 0.50733
174 3 11.3386 6.68524 10.7016 -0.450307 -0.407453 0.471894
176 3 8.92017 7.69102 12.3714 0.451571 0.0124741 1.20071
110 2 10.7038 7.55591 16.1593 2.0114 1.09454 -0.200154
166 3 9.50759 6.0643 15.5775 -0.897963 0.739134 -0.402785
112 2 8.17952 6.65251 13.8678 -1.7874 -3.31425 -1.14391
173 3 8.08975 4.56309 13.1154 -1.3301 1.4559 0.376458
2 1 9.15593 10.8061 0.134594 0.287866 -0.0446091 0.304324
3 1 10.6621 10.1346 3.16282 0.678735 0.00368312 0.494093
80 1 8.29044 9.30484 2.22124 -0.439227 -0.913262 -0.893168
165 3 10.4069 8.11032 1.66437 -0.467076 0.499272 0.565938
177 3 8.70147 11.3429 2.80387 1.43655 0.562875 -0.755724
82 1 8.42465 9.72956 4.88959 -0.539395 -0.942977 0.498968
87 1 10.3152 10.7801 6.67657 0.760311 -1.10905 -0.399541
118 3 11.4497 11.8862 4.86766 1.78132 0.00847848 0.650449
120 3 8.08468 11.1065 6.95001 -0.478334 -0.6707 -0.039195
130 3 10.6517 8.45135 5.02193 0.521106 0.0402236 0.932435
98 2 10.0592 11.1139 10.0764 0.845043 0.378169 0.336243
117 3 10.944 10.903 11.881 -0.685346 -0.50324 0.748856
137 3 9.27938 9.30747 9.57007 1.63784 0.345651 -0.342403
30 1 8.56781 10.3811 12.2516 -0.649816 0.325088 0.538437
17 1 11.3376 8.45178 12.5813 0.403215 -0.256209 -0.431528
168 3 11.417 9.08564 15.129 -2.51962 2.26201 -1.9315
1 1 11.5072 13.1355 3.14795 -1.20469 1.54713 -1.19586
86 1 8.13418 14.0588 2.13626 0.463338 -0.652052 0.0502355
191 3 9.37606 14.8167 3.84569 0.595597 -0.548567 1.32603
193 4 8.50822 15.0617 0.130436 0.352398 0.0478708 -0.0533002
5 1 9.28766 12.5027 4.75792 -0.388339 0.680076 -0.448329
88 1 11.2479 14.9793 5.47331 -0.0599762 -0.142099 -0.348059
90 1 8.6724 15.1789 6.22236 0.447628 0.00344598 -0.44485
114 3 10.5273 14.1774 7.5379 0.718576 -1.33373 -0.220871
14 1 8.51293 12.9873 8.67749 -0.149008 -0.424944 -0.582501
97 2 11.2195 14.9345 9.43273 0.200877 -0.218122 -0.709667
115 3 9.69373 14.0807 10.6032 -1.52459 -0.472971 0.76465
119 3 8.06014 15.4281 10.3498 -0.190428 1.12837 -1.31528
15 1 11.471 13.8352 12.5755 1.01079 -0.434884 -0.0861214
150 3 10.8989 16.0415 12.9659 -0.760355 -0.654841 -1.41254
196 4 8.54911 12.273 14.6414 0.414883 -0.38941 -0.572063
22 1 8.0747 14.4103 14.0615 -0.77562 -0.520977 0.939586
37 1 12.7665 1.67962 7.98798 0.916666 -0.0360842 -0.256274
85 1 13.233 0.738611 4.39021 -0.785273 0.48521 0.255403
161 3 13.7775 3.10224 4.63505 -0.118802 -1.59468 0.987982
207 4 14.3315 0.359511 6.47178 -1.15384 0.264097 0.917925
46 1 15.6722 2.579 10.4229 0.0902084 0.191555 0.908339
199 4 14.0368 3.4279 9.03179 -0.261604 0.20109 -0.146655
41 1 13.9292 2.79492 13.2448 0.0785655 -0.12783 -0.0209632
106 2 12.6356 0.0663832 13.9882 -1.49849 0.77011 0.775215
152 3 14.1216 0.568724 12.7531 0.448367 -0.194065 0.165741
52 1 15.5138 6.26167 3.47228 -0.108545 -0.046834 1.25857
57 1 12.9204 7.54629 2.0202 -0.426967 -0.489396 -0.512614
109 2 13.5208 4.18716 3.03616 -0.101209 -2.06736 -0.655975
163 3 15.2068 4.20215 2.05495 1.69992 -0.148481 -1.46453
164 3 13.1053 5.86194 3.74941 -1.97358 3.94712 -0.0377085
48 1 15.1787 5.22575 6.93086 1.23539 -0.209972 0.259604
84 1 12.3909 6.8024 5.85289 -0.872282 0.430818 -0.137287
129 3 14.3432 7.33694 7.10318 -0.338203 0.233972 0.0473704
38 1 13.0338 4.98328 11.022 -0.245163 0.0691979 -0.245474
102 2 14.4678 7.08444 11.9861 0.0629165 -0.169126 -0.917798
20 1 14.7216 7.58403 15.8513 0.366616 0.559122 0.0407685
133 3 13.9198 6.61987 13.9662 -2.21655 0.884433 -1.1003
167 3 12.3771 6.54177 16.3536 2.8379 -2.08768 1.73479
73 1 15.8395 5.35244 14.1621 0.738252 -0.466956 0.558159
42 1 12.3022 5.06887 14.2221 -0.494874 0.506838 0.0631114
59 1 15.3282 10.6441 0.784802 -0.225683 0.0281796 0.703208
154 3 14.704 9.34341 3.95521 -0.526383 -0.566215 1.1801
186 3 15.4797 8.34454 2.07929 0.100925 0.414068 -0.00954416
55 1 12.6326 9.78831 5.13542 -0.595177 -0.155017 0.480468
101 2 14.9306 8.95731 6.3485 0.418259 2.26133 -3.06313
70 1 14.3339 11.8363 8.71579 0.51303 -0.471051 -0.668661
92 1 13.2402 8.85433 9.17867 0.220799 -1.49787 0.405088
135 3 13.8936 9.0044 11.4368 -0.506595 -0.0912843 2.37562
206 4 12.501 10.6853 8.33116 -0.76005 0.0128397 -0.189285
180 3 15.5923 9.86521 15.0795 -0.314432 -0.00531707 -1.41502
24 1 13.5362 9.43002 13.9763 0.891406 -0.319481 -0.13732
4 1 13.325 15.0927 0.257877 -0.722447 1.01667 1.03713
107 2 14.5616 13.6106 1.91829 2.52575 1.8706 2.818
153 3 13.2157 15.1619 2.59077 -0.755548 -0.872745 0.476714
155 3 15.5696 14.6545 0.431876 1.09702 0.498323 -1.65459
156 3 13.4602 12.3542 0.953572 -1.26805 -2.89153 -0.578531
69 1 14.0535 12.7395 4.09385 0.364477 0.247343 0.676651
68 1 14.191 14.6577 8.06619 0.685424 1.4667 0.0338424
188 3 14.7787 13.1438 6.65131 -1.40038 -1.38651 -1.29579
71 1 12.5765 12.3091 6.83744 0.442146 0.941685 0.234769
116 3 12.7928 14.0308 10.2737 -0.0196313 0.48429 -1.40044
6 1 14.5058 12.2277 15.0321 -0.106097 -0.212887 0.696662
19 1 15.569 14.6128 14.3822 -0.217714 0.608963 -0.300826
151 3 12.7593 14.2827 14.8039 0.280493 0.439559 -1.08658
204 4 15.1999 12.8429 12.6942 -0.538612 0.139245 1.04459
ITEM: TIMESTEP
40
ITEM: NUMBER OF ATOMS
208
ITEM: BOX BOUNDS pp pp pp
0.0000000000000000e+00 1.6026081999999999e+01
0.0000000000000000e+00 1.6100000000000001e+01
0.0000000000000000e+00 1.6425367000000001e+01
ITEM: ATOMS id type x y z fx fy fz
7 1 3.51978 0.724639 0.469004 0.555429 -0.568359 0.575696
36 1 1.03935 2.66575 2.08086 0.164115 -0.223184 -0.264202
50 1 0.312064 3.63661 4.74718 -1.16931 0.201497 -0.229023
123 3 1.8008 2.23561 4.20761 0.705469 -1.28606 0.702265
9 1 1.83713 0.053386 5.58025 -0.107413 0.0893147 -0.014507
94 1 3.05101 2.91255 10.5842 -0.310477 -0.319633 0.200424
75 1 2.00811 2.49194 13.9137 0.438754 0.269312 -0.237978
189 3 0.106678 3.40972 12.9561 0.00146973 -1.61784 -1.53967
198 4 2.5006 2.58469 16.285 -0.54315 0.0754164 -0.20526
124 3 3.77441 5.4066 3.07875 0.770081 0.101668 0.0266008
51 1 3.11955 4.32306 5.05726 -0.644872 -0.124024 0.0831376
53 1 2.00831 7.63029 5.14062 0.721505 0.918599 0.552214
60 1 1.86479 6.8218 7.64419 -0.513621 -1.10828 0.547976
185 3 0.931624 5.72159 5.53515 -0.307466 0.445545 0.457449
195 4 3.78018 7.34298 7.07114 0.153021 1.29709 -1.90456
21 1 2.72226 7.75576 11.1718 -0.133256 0.00872489 -0.128082
29 1 0.92276 5.03269 11.4668 -0.260218 -0.0243439 -0.216497
200 4 1.46094 4.02837 9.46898 1.60765 0.554427 1.0457
143 3 0.995443 8.01107 9.6092 -0.432462 -0.489973 0.704847
205 4 1.12176 6.87986 15.8142 0.124942 0.0764929 0.0610756
78 1 3.35369 7.27263 15.676 0.269536 0.428093 -0.567983
181 3 3.63571 7.5383 13.2145 -1.03695 0.22306 1.3774
134 3 0.385093 7.02687 12.4922 0.664888 0.322863 -0.507585
56 1 1.75826 9.28017 1.39571 0.720468 0.820148 -0.105815
169 3 2.7016 9.47816 3.62234 0.220127 0.197449 -0.321312
201 4 1.31973 11.7001 1.04229 1.01778 -1.32309 -0.393048
10 1 3.71866 12.0208 0.742015 -0.0297072 -0.451152 0.690255
58 1 1.56539 11.2135 4.62772 -0.67351 0.70658 0.239228
131 3 1.07329 9.51882 6.48089 -0.0741202 -1.06496 -0.275476
172 3 3.79133 11.3894 6.12638 -0.38526 0.233327 0.366391
18 1 2.63005 11.6478 10.5274 0.320045 -0.048779 -1.10864
104 2 1.6368 9.62971 8.63549 -0.264923 1.22878 -1.68859
141 3 0.516369 11.2362 9.30876 0.457509 0.52567 1.20518
23 1 0.208604 10.202 12.0839 -0.45317 -0.436891 -0.0319766
11 1 1.43585 11.182 14.5716 0.0518406 0.249688 0.655469
26 1 1.22273 8.30086 14.1161 -0.411087 -0.353243 0.130949
159 3 3.93363 9.70953 16.1714 0.0223267 -0.0645715 0.456359
144 3 2.74199 11.5429 12.6461 1.22123 -0.200913 1.0265
178 3 3.71077 14.2922 0.0337475 1.16026 0.407462 -0.953487
77 1 1.77398 13.9977 0.958968 -0.694043 0.232201 0.754764
8 1 3.48817 14.1516 4.87267 -0.500654 -1.74825 -1.40742
67 1 0.950067 13.3619 7.59236 -1.04867 -1.44014 -0.868001
125 3 3.9642 15.6312 6.61379 0.536295 -0.0750561 -1.70483
202 4 1.20635 13.6397 4.53813 2.11824 1.10176 0.877763
64 1 1.47015 13.1611 11.9077 -0.557672 1.29384 1.10692
100 2 3.54962 15.3629 8.59633 -1.16904 0.152073 0.939719
128 3 1.36548 15.2596 8.63631 1.21679 1.2926 -0.481595
44 1 3.71299 16.0017 11.7005 0.810059 -0.261432 0.756971
65 1 3.715 13.523 14.1698 -0.645203 0.340516 -0.306808
203 4 1.66912 15.3409 12.7386 0.80011 -0.637147 -0.0804605
32 1 5.86945 3.00826 2.32364 0.128217 -1.11668 0.349283
33 1 7.16743 0.984109 0.808684 -0.227684 0.501485 -1.86424
194 4 5.99394 0.426867 2.60629 0.368928 0.199265 0.231629
43 1 7.82096 3.70648 5.76344 -0.454929 -0.0916433 0.830002
45 1 5.39277 1.21443 5.45428 -0.621105 -0.104955 0.0273588
145 3 7.46923 1.25028 6.48701 0.018821 -0.11833 -0.639439
89 1 7.73495 0.452389 4.11315 -1.44453 -0.180781 0.34147
61 1 6.79346 0.591198 12.2672 -1.16665 -0.504807 -0.340421
91 1 5.83805 3.6604 11.7837 1.4711 0.0751569 -1.38419
126 3 4.48181 0.956901 9.54155 -1.19852 -1.50102 0.0729281
139 3 6.65603 3.95163 9.51004 1.14331 -0.498501 0.0102809
192 3 7.52987 2.15771 10.2949 -0.997286 0.601384 -0.403635
184 3 4.13777 2.7106 12.6881 -0.705621 0.366863 0.938518
74 1 6.31925 2.61015 14.0696 -0.817828 0.802144 1.01469
182 3 6.09283 2.90442 16.4228 -0.846034 -0.0921548 1.16271
31 1 4.61578 4.72702 0.889975 -0.744609 -0.0980737 0.390453
34 1 7.04016 4.89855 0.386593 -0.0738791 1.08084 1.42711
54 1 4.20774 7.80253 3.04652 0.619702 -0.675719 0.0274585
99 2 5.66381 4.75032 3.70239 -0.269189 0.576638 -0.316933
121 3 6.87516 6.4624 2.96316 -0.395557 0.701778 0.0557782
160 3 5.26636 6.64102 0.193336 1.33852 1.00587 -0.342409
49 1 6.07295 6.73222 6.71501 -0.771573 -0.544616 -0.328179
122 3 5.54167 4.49461 5.74352 1.17622 0.727561 -0.560307
13 1 6.11704 7.71179 10.0556 0.845043 0.932101 0.148415
138 3 7.75291 6.92775 8.51996 -1.16474 0.707518 -0.488288
208 4 4.26323 6.25337 10.3516 -0.690241 -0.188729 0.607547
25 1 5.51978 7.45357 14.3626 0.383241 -0.100307 0.202095
76 1 4.09542 5.27218 12.892 -0.431351 0.183577 -0.473081
83 1 6.80153 11.7237 4.0213 0.142923 -0.459793 -0.73712
108 2 5.535 8.66933 0.87793 0.159579 -1.16939 -2.77988
16 1 5.55913 10.2027 7.10135 0.0539776 -0.226595 0.160213
111 2 4.32204 10.6688 4.29007 -1.16958 0.960302 -1.20406
157 3 5.91209 9.33746 4.62157 0.0193346 0.0342912 1.13005
120 3 8.00619 10.9952 6.87371 0.212617 0.425537 -0.0600083
142 3 5.57221 10.4745 9.6735 0.765869 -0.811152 -0.442155
179 3 6.99702 11.7403 10.3737 -0.178409 -0.327681 -0.893957
66 1 5.17204 11.8642 12.229 -0.524182 0.268297 -0.0768948
28 1 6.56413 11.3373 15.2747 0.535168 -0.869334 -0.278222
158 3 7.29341 9.21087 16.2089 0.893669 -1.09954 -0.393323
197 4 6.22297 10.2107 13.0378 0.0451615 -0.856035 1.46501
27 1 4.12096 9.76813 13.6998 -0.68993 0.0705754 0.39736
170 3 4.73532 12.2652 2.98044 -0.449758 -0.793485 0.601281
12 1 5.05749 13.5815 6.99306 0.72476 -0.604719 -0.191219