ITEM: TIMESTEP
0
ITEM: NUMBER OF ATOMS
65
ITEM: BOX BOUNDS pp pp pp
0.0000000000000000e+00 1.0250000000000000e+01
0.0000000000000000e+00 1.0250000000000000e+01
0.0000000000000000e+00 1.2350000000000000e+01
ITEM: ATOMS id type x y z fx fy fz
3 1 2.5167 1.79302 0.46485 -0.184544 -0.0181671 -0.0186795
50 3 1.00737 2.18691 2.36333 0.318356 -0.0182063 -0.0326734
6 1 1.9675 0.44788 8.16863 0.0974394 -0.174502 0.232223
41 3 0.27674 2.04323 7.33525 0.0373052 -0.0669472 0.174759
48 3 0.81966 2.51768 11.1843 0.0609087 0.366401 -0.286872
44 3 1.75768 4.02661 1.69576 -0.0885391 0.282142 0.111005
23 1 0.05007 3.83201 5.74074 -0.116712 -0.0165395 -0.133764
60 3 2.51776 4.35743 5.08938 -0.00200994 0.0159127 -0.0254166
13 1 0.35716 3.78242 9.03353 -0.0884119 0.0308181 0.138165
33 2 0.97141 4.42769 12.022 -0.111955 -0.138804 -0.401166
34 2 2.03673 7.24987 6.03468 0.293733 0.0530593 0.217189
45 3 1.84162 5.67236 9.32099 -0.0928244 -0.0613827 0.0980169
4 1 1.45284 7.74107 2.56988 0.200578 -0.0641208 -0.0970861
65 4 0.67654 7.81318 0.36192 -0.155923 -0.227622 -0.0301162
39 3 2.02569 9.33233 5.86273 -0.0647441 -0.261207 0.0686422
20 1 2.16301 7.80323 10.7332 0.178033 0.0251526 0.00761046
63 4 0.69725 9.23103 9.42311 -0.226815 -0.196573 0.0370859
56 3 4.7678 1.96554 1.7125 0.139865 -0.0817378 0.0903139
59 3 4.20555 0.06549 1.0109 0.0279026 -0.102529 0.21819
5 1 3.09319 2.24493 3.93741 -0.0929612 -0.132098 -0.0100939
53 3 5.00612 1.72604 5.71945 0.12812 0.233525 0.178938
36 3 3.80545 1.04788 9.97858 -0.0632071 0.158645 -0.0204923
18 1 4.98429 4.11339 5.33877 -0.21366 -0.196352 0.248329
32 2 2.92928 4.70325 10.9071 0.0836245 -0.33166 0.087203
19 1 4.73562 6.88289 1.72292 -0.0528887 -0.121384 0.161687
31 2 2.90525 6.24531 4.15844 -0.0739342 -0.14787 -0.129011
42 3 5.03322 6.3221 4.16781 -0.0531522 0.182486 -0.228147
14 1 3.06277 5.36374 7.32572 -0.142039 -0.314367 -0.127468
43 3 4.09908 6.29537 11.6997 -0.113859 0.105598 -0.228917
37 3 3.95713 9.07225 2.66721 -0.0156396 -0.0412155 0.460991
11 1 4.34825 9.85664 6.544 0.0667715 0.345981 0.16332
38 3 4.42858 9.30806 10.2087 -0.135869 0.0357941 -0.221768
21 1 7.25581 2.39651 2.68508 -0.0531844 0.15255 -0.149185
8 1 5.31092 0.59986 3.7148 0.139208 0.136207 0.0879826
25 1 7.42213 1.44341 5.49379 -0.0580887 -0.0136505 0.121401
64 4 7.59796 0.14994 3.50658 -0.088456 -0.043646 -0.123025
15 1 6.55437 2.23571 12.1689 -0.366065 0.137045 0.0396475
28 1 7.06255 0.12552 9.55086 -0.19442 0.374341 -0.236882
57 3 5.49571 2.21062 9.87884 0.0503393 0.195561 0.0980207
29 1 6.18745 2.81943 7.70693 0.0844375 -0.170479 -0.0674336
7 1 7.52918 5.67914 2.66666 0.220195 0.117317 -0.134016
54 3 7.0355 7.39837 1.0776 0.275199 0.125412 -0.0679599
2 1 7.612 5.77518 7.56331 -0.117466 -0.143783 -0.0760523
61 4 5.3398 5.13337 7.53466 0.15019 0.0147931 0.0611498
17 1 6.47464 5.45145 12.1469 -0.0849521 -0.0237558 0.117959
26 1 5.52084 6.47203 9.54968 -0.139919 0.166681 0.0467562
27 1 6.43605 8.35398 3.14836 0.15005 0.109704 -0.283944
58 3 5.51011 8.76842 8.51708 0.164552 -0.0371009 -0.1395
1 1 6.20008 9.28208 12.2497 0.262272 -0.272089 0.13991
24 1 9.37726 1.99226 0.54063 0.162969 0.0108326 -0.145301
52 3 8.54837 1.28691 7.63965 0.0286809 0.00651564 0.348394
16 1 8.93398 1.9007 10.0977 -0.261267 -0.0199828 -0.209156
51 3 8.01733 0.41612 11.7167 -0.29575 0.309604 0.135134
10 1 9.75541 4.23566 2.7458 0.0812509 0.0279781 0.018542
46 3 7.96365 3.91683 1.04638 -0.0865164 0.128319 -0.00600566
62 4 8.13165 3.59947 4.63345 0.12459 -0.377077 -0.136332
55 3 8.21813 4.09472 9.12869 0.105156 0.309639 -0.0519516
12 1 9.05656 5.93554 0.03356 0.0270846 0.123017 -0.0215178
35 2 10.2202 6.35704 5.59758 -0.0318033 0.051295 -0.161681
49 3 9.71962 6.71937 3.57411 0.111372 -0.430082 -0.097165
22 1 9.83644 7.15366 9.07201 -0.0956692 -0.0475582 0.0557267
40 3 8.94778 7.55354 6.76612 -0.0352115 -0.103993 0.0451872
47 3 7.89074 5.94724 10.1299 0.0562157 0.0285053 0.197016
30 1 8.85473 8.89441 0.61968 0.064145 -0.0255518 -0.315088
9 1 10.0346 9.65529 7.08184 0.107914 0.0612015 0.207369
ITEM: TIMESTEP
5
ITEM: NUMBER OF ATOMS
65
ITEM: BOX BOUNDS pp pp pp
0.0000000000000000e+00 1.0250000000000000e+01
0.0000000000000000e+00 1.0250000000000000e+01
0.0000000000000000e+00 1.2350000000000000e+01
ITEM: ATOMS id type x y z fx fy fz
3 1 2.43613 1.79395 0.4079 0.0403821 -0.208209 0.201453
50 3 0.957589 2.19215 2.34234 0.296519 0.0750966 -0.0360191
6 1 2.00838 0.473611 8.17639 0.11068 -0.0744895 0.0939555
41 3 0.268769 2.02345 7.32072 0.290427 -0.024305 0.0392228
48 3 0.807596 2.50425 11.1662 0.302969 0.737669 -0.154317
44 3 1.795 4.00367 1.69376 -0.239459 0.129156 0.284885
23 1 0.125416 3.81858 5.67762 -0.349505 -0.0619523 0.15186
60 3 2.50471 4.38202 5.08956 -0.138709 -0.000341442 0.0918597
13 1 0.244064 3.75455 9.0493 0.276001 0.0840204 0.0309803
33 2 0.97395 4.43081 12.064 -0.0960478 -0.30484 -0.692886
34 2 2.02913 7.28414 6.03047 0.374355 -0.338376 -0.136264
45 3 1.85407 5.6888 9.27695 -0.223946 -0.393825 0.744769
4 1 1.51402 7.58546 2.55585 0.123341 0.197899 0.03258
65 4 0.696971 7.78962 0.353432 -0.0867192 -0.340433 -0.193001
39 3 2.02954 9.31338 5.90161 0.049106 0.0234879 -0.319666
20 1 2.1336 7.74123 10.7145 0.671798 0.068798 0.0710489
63 4 0.753646 9.22762 9.40305 -0.826418 -0.224676 0.458148
56 3 4.72614 1.93155 1.72646 0.185759 -0.0253468 -0.00564894
59 3 4.21521 0.0762751 0.997429 0.0473363 -0.419497 0.114593
5 1 3.0786 2.18802 3.96892 -0.109437 -0.19263 -0.011511
53 3 4.98203 1.77147 5.72105 -0.175822 -0.00981985 0.290167
36 3 3.78968 1.06525 9.96337 0.295776 0.0462122 -0.000271714
18 1 4.86513 4.13125 5.33418 -0.106027 -0.0457072 0.170672
32 2 2.9183 4.75917 10.9178 0.0528396 -0.667035 -0.114194
19 1 4.81063 6.82196 1.7721 -0.22067 0.200727 0.214135
31 2 2.9419 6.2343 4.16685 -0.146644 0.199572 0.0930728
42 3 5.06746 6.31832 4.16037 -0.14188 0.135884 -0.120008
14 1 3.0446 5.36527 7.37206 0.389004 -0.155433 -0.494407
43 3 4.07932 6.30787 11.7135 -0.206256 0.319725 -0.212777
37 3 3.9447 9.08532 2.68914 0.0453143 0.0689838 0.224269
11 1 4.38858 9.8782 6.51579 -0.0290975 0.323656 0.353173
38 3 4.44071 9.3288 10.2224 0.130788 0.072225 -0.416159
21 1 7.20472 2.42745 2.69393 0.102751 0.101007 -0.167286
8 1 5.2669 0.674958 3.71759 0.485656 -0.187414 0.153001
25 1 7.39809 1.41472 5.52358 -0.223019 -0.248025 -0.124486
64 4 7.62638 0.190845 3.5298 -0.474977 -0.159829 -0.0932699
15 1 6.43961 2.29929 12.1776 -0.110927 -0.12854 -0.0466845
28 1 7.1474 0.231991 9.54582 -0.63424 0.0329919 -0.235861
57 3 5.4982 2.23786 9.9141 -0.0921631 0.369958 0.0205784
29 1 6.17445 2.83953 7.6494 0.0829425 -0.18116 0.236966
7 1 7.52393 5.7056 2.65965 0.346359 0.0187808 -0.110496
54 3 7.04412 7.40509 1.07983 0.928489 -0.17588 -0.0625162
2 1 7.55371 5.80859 7.56176 0.248258 -0.260187 -0.100347
61 4 5.35995 5.1109 7.53102 -0.398267 -0.100267 -0.216271
17 1 6.43348 5.49882 12.1834 -0.070924 -0.484285 -0.186059
26 1 5.54549 6.47448 9.56021 -0.257923 0.257779 0.00453885
27 1 6.41481 8.37182 3.11207 0.108326 0.419593 -0.00819916
58 3 5.56274 8.75437 8.51702 0.0556361 0.447423 0.178097
1 1 6.32718 9.2175 12.3324 -0.788156 0.562465 -0.197314
24 1 9.33705 2.06087 0.521586 0.381428 0.00651231 0.0144366
52 3 8.56384 1.27158 7.59564 -0.0321807 0.0343814 0.48305
16 1 8.83181 1.90198 10.1711 0.361854 -0.337579 -0.974519
51 3 8.03185 0.44917 11.7456 -0.596878 -0.100088 0.235073
10 1 9.6828 4.18207 2.77955 0.249708 -0.108216 -0.131395
46 3 7.95374 3.87365 1.01516 -0.356645 0.859298 0.531464
62 4 8.13246 3.55642 4.64034 0.170528 -0.114649 -0.0453786
55 3 8.22169 4.09724 9.11658 -0.495369 0.186753 -0.0148478
12 1 9.09857 5.98297 0.0687995 0.0286081 0.0068674 -0.153075
35 2 10.167 6.36189 5.60461 0.181655 -0.0331202 0.123133
49 3 9.72683 6.70217 3.5851 0.147795 -0.360077 -0.329018
22 1 9.89281 7.15467 9.05013 -0.394953 -0.116096 0.121205
40 3 8.8808 7.55293 6.75066 -0.103782 0.0804999 0.263426
47 3 7.89145 5.87736 10.1054 0.281987 0.358919 0.566725
30 1 8.93926 8.90765 0.5364 0.139574 -0.0657176 -0.550777
9 1 10.0563 9.60347 7.12854 0.143094 0.221706 0.062391
ITEM: TIMESTEP
10
ITEM: NUMBER OF ATOMS
65
ITEM: BOX BOUNDS pp pp pp
0.0000000000000000e+00 1.0250000000000000e+01
0.0000000000000000e+00 1.0250000000000000e+01
0.0000000000000000e+00 1.2350000000000000e+01
ITEM: ATOMS id type x y z fx fy fz
3 1 2.35693 1.78795 0.358084 0.23446 -0.242054 0.424184
50 3 0.910074 2.1979 2.32108 0.333514 0.0850397 -0.0436199
6 1 2.05285 0.496897 8.18736 0.0322696 0.0774309 -0.0656748
41 3 0.262957 2.00349 7.30652 0.505409 0.0266236 -0.0588869
48 3 0.797734 2.4963 11.147 0.428088 1.01871 -0.102138
44 3 1.83058 3.98161 1.69383 -0.290159 -0.110922 0.353134
23 1 0.188646 3.80261 5.61971 -0.566215 -0.180206 0.38327
60 3 2.49054 4.40664 5.0904 -0.39045 0.0333181 0.15289
13 1 0.140746 3.72956 9.06603 0.689444 0.148022 -0.106128
33 2 0.97581 4.4316 12.1008 -0.0059578 -0.424388 -0.870198
4 1 1.57855 7.43732 2.54173 -0.26263 0.582496 -0.290754
34 2 2.02439 7.31585 6.02528 0.369931 -0.622572 -0.368519
45 3 1.86484 5.70233 9.23836 -0.348548 -0.65455 1.15418
20 1 2.12685 7.68145 10.6986 0.908978 0.043531 0.220645
65 4 0.71682 7.76378 0.343669 -0.0116171 -0.39109 -0.284475
39 3 2.03375 9.29456 5.93826 0.156278 0.245752 -0.375012
63 4 0.804595 9.22251 9.38599 -1.1069 -0.4839 0.60591
56 3 4.68586 1.8974 1.74042 0.207961 0.116431 -0.0142503
59 3 4.22519 0.0839252 0.984796 0.0226078 -0.701897 -0.0207031
5 1 3.0599 2.12523 3.99959 -0.223352 0.0139355 -0.179423
53 3 4.95664 1.81683 5.72479 -0.442204 -0.256271 0.3398
36 3 3.77625 1.0829 9.94815 0.714508 -0.123194 -0.010513
18 1 4.74342 4.14727 5.33563 0.30702 0.0436496 0.137533
32 2 2.90775 4.80999 10.9276 0.0475519 -0.875409 -0.204048
19 1 4.87803 6.76788 1.82846 -0.374312 0.474562 0.17171
31 2 2.97745 6.22483 4.17598 -0.165058 0.513228 0.325747
42 3 5.10068 6.31559 4.15199 -0.183481 0.120933 -0.0603229
14 1 3.03931 5.36126 7.4017 0.718306 -0.0336436 -0.704731
43 3 4.05802 6.32268 11.7256 -0.278091 0.356354 -0.238057
37 3 3.93267 9.09877 2.71275 0.220122 -0.0957615 0.00187974
11 1 4.42771 9.91079 6.49964 -0.146612 0.22825 0.43909
38 3 4.45378 9.35007 10.233 0.302893 0.128147 -0.644667
21 1 7.15703 2.46213 2.69712 0.201208 0.127368 -0.13629
8 1 5.23923 0.743836 3.72601 0.644545 -0.416839 0.314787
25 1 7.36638 1.37809 5.5487 -0.393946 -0.294005 -0.453477
64 4 7.65186 0.230682 3.55209 -0.423755 -0.192952 -0.447974
15 1 6.32143 2.35873 12.1849 0.30918 -0.286941 -0.000171971
28 1 7.20953 0.338683 9.53286 -1.25004 -0.601979 -0.141786
57 3 5.50002 2.26779 9.94948 -0.221158 0.410232 -0.0828269
29 1 6.16441 2.85317 7.60007 0.134036 -0.227839 0.502643
61 4 5.37747 5.08779 7.52598 -0.810384 -0.135643 -0.366101
7 1 7.53066 5.73282 2.64896 0.456681 -0.0398815 -0.0262111
54 3 7.05964 7.41054 1.08167 1.43824 -0.411652 0.0767914
2 1 7.50315 5.83352 7.55695 0.368587 -0.218763 -0.0749378
17 1 6.38973 5.5299 12.2135 -0.092476 -0.787576 -0.471674
26 1 5.5615 6.48557 9.57084 -0.255164 0.240766 -0.0618802
27 1 6.39773 8.40401 3.07503 0.193497 0.643321 0.122663
1 1 6.42739 9.17208 0.0586275 -1.54901 1.2601 -0.314539
58 3 5.61572 8.74356 8.51826 -0.112724 0.69234 0.35493
24 1 9.30989 2.12927 0.502818 0.52772 -0.145757 0.0978798
52 3 8.57909 1.25651 7.55519 -0.0854461 0.0397775 0.489921
16 1 8.74108 1.8932 10.2123 0.67355 -0.149816 -1.20693
51 3 8.04197 0.481434 11.7763 -0.735529 -0.566092 0.252749
10 1 9.61863 4.12483 2.80865 0.329508 -0.209034 -0.307614
46 3 7.94115 3.83679 0.987653 -0.621507 1.39346 0.666824
62 4 8.1344 3.51235 4.64683 0.238743 -0.238331 -0.107834
55 3 8.22159 4.10137 9.10423 -1.04439 0.384044 -0.108787
12 1 9.14179 6.03111 0.0991476 0.0938647 0.0394774 -0.140757
35 2 10.1153 6.36661 5.61265 0.349693 0.0831697 0.486786
49 3 9.73516 6.68222 3.5937 0.193744 -0.340785 -0.434829
22 1 9.93576 7.15175 9.0326 -0.588258 -0.145369 0.224667
40 3 8.81323 7.55288 6.73711 0.0487547 0.220961 0.395861
47 3 7.89418 5.81011 10.0852 0.365248 0.575799 0.79656
30 1 9.02802 8.91933 0.436774 -0.00273314 0.0616347 0.103648
9 1 10.0832 9.55873 7.17748 0.215964 0.176247 -0.0699455
