ITEM: TIMESTEP
0
ITEM: NUMBER OF ATOMS
65
ITEM: BOX BOUNDS pp pp pp
0.0000000000000000e+00 1.0250000000000000e+01
0.0000000000000000e+00 1.0250000000000000e+01
0.0000000000000000e+00 1.2350000000000000e+01
ITEM: ATOMS id type x y z fx fy fz
3 1 2.5167 1.79302 0.46485 -0.159242 -0.104308 -0.026084
50 3 1.00737 2.18691 2.36333 0.30115 -0.0576334 -0.0577976
6 1 1.9675 0.44788 8.16863 0.0135038 -0.215037 0.134636
41 3 0.27674 2.04323 7.33525 0.128941 -0.107571 0.237306
48 3 0.81966 2.51768 11.1843 -0.00693004 0.475258 -0.356303
44 3 1.75768 4.02661 1.69576 -0.0334289 0.241751 0.160108
23 1 0.05007 3.83201 5.74074 -0.00456831 0.0331652 -0.131955
60 3 2.51776 4.35743 5.08938 0.066758 0.0772102 -0.0260691
13 1 0.35716 3.78242 9.03353 -0.109637 0.106463 0.124544
33 2 0.97141 4.42769 12.022 -0.0792455 -0.0377057 -0.305674
34 2 2.03673 7.24987 6.03468 0.139128 -0.386841 0.296526
45 3 1.84162 5.67236 9.32099 -0.11207 0.122637 0.0295512
4 1 1.45284 7.74107 2.56988 0.149954 -0.063106 -0.0136929
65 4 0.67654 7.81318 0.36192 -0.266552 -0.202387 0.0150283
39 3 2.02569 9.33233 5.86273 -0.0127309 0.00515194 0.0334808
20 1 2.16301 7.80323 10.7332 0.0451833 0.00191087 -0.0290648
63 4 0.69725 9.23103 9.42311 -0.109593 -0.120539 0.00497179
56 3 4.7678 1.96554 1.7125 0.229536 0.0811493 0.127341
59 3 4.20555 0.06549 1.0109 -0.108573 -0.270404 0.308369
5 1 3.09319 2.24493 3.93741 -0.0267654 0.038077 0.060666
53 3 5.00612 1.72604 5.71945 0.221455 0.262587 0.109968
36 3 3.80545 1.04788 9.97858 -0.140092 0.0459968 0.0354188
18 1 4.98429 4.11339 5.33877 -0.241778 -0.256163 0.274754
32 2 2.92928 4.70325 10.9071 -0.0590561 -0.207242 0.129893
19 1 4.73562 6.88289 1.72292 0.0841438 -0.0388543 0.0582751
31 2 2.90525 6.24531 4.15844 -0.088932 -0.0887647 -0.237005
42 3 5.03322 6.3221 4.16781 -0.00767405 0.10867 -0.275613
14 1 3.06277 5.36374 7.32572 -0.190955 -0.299186 -0.154595
43 3 4.09908 6.29537 11.6997 0.0301074 0.028058 -0.216879
37 3 3.95713 9.07225 2.66721 0.0484771 -0.116136 0.306243
11 1 4.34825 9.85664 6.544 0.0944049 0.25372 0.0666326
38 3 4.42858 9.30806 10.2087 -0.0961023 -0.0220463 -0.177232
21 1 7.25581 2.39651 2.68508 -0.174759 0.185812 0.00740998
8 1 5.31092 0.59986 3.7148 0.173327 0.0517475 0.0343524
25 1 7.42213 1.44341 5.49379 0.0101088 0.0300542 0.113435
64 4 7.59796 0.14994 3.50658 -0.0472524 -0.0899905 -0.0012216
15 1 6.55437 2.23571 12.1689 -0.273652 0.0383493 -0.047543
28 1 7.06255 0.12552 9.55086 -0.165332 0.288561 -0.140442
57 3 5.49571 2.21062 9.87884 0.0136188 0.278996 0.00373148
29 1 6.18745 2.81943 7.70693 -0.0435868 -0.19236 -0.169023
7 1 7.52918 5.67914 2.66666 0.127637 0.103729 -0.00361275
54 3 7.0355 7.39837 1.0776 0.0721748 0.0400044 0.0729254
2 1 7.612 5.77518 7.56331 -0.125177 -0.122137 -0.104694
61 4 5.3398 5.13337 7.53466 0.143769 0.0478673 0.00795399
17 1 6.47464 5.45145 12.1469 -0.0216799 0.0245415 0.152398
26 1 5.52084 6.47203 9.54968 -0.142229 0.168215 0.0521806
27 1 6.43605 8.35398 3.14836 0.173219 0.201038 -0.334895
58 3 5.51011 8.76842 8.51708 0.100657 -0.0274015 -0.186081
1 1 6.20008 9.28208 12.2497 0.318262 -0.266429 0.139383
24 1 9.37726 1.99226 0.54063 0.0498463 0.0269473 -0.183449
52 3 8.54837 1.28691 7.63965 0.0651945 0.020573 0.39004
16 1 8.93398 1.9007 10.0977 -0.298386 0.0496965 -0.269507
51 3 8.01733 0.41612 11.7167 -0.194352 0.282565 0.194851
10 1 9.75541 4.23566 2.7458 0.145199 0.0263861 0.0329867
46 3 7.96365 3.91683 1.04638 0.0661652 0.102451 0.0722136
62 4 8.13165 3.59947 4.63345 0.156352 -0.258476 -0.107096
55 3 8.21813 4.09472 9.12869 0.0658882 0.0307593 -0.0709832
12 1 9.05656 5.93554 0.03356 -0.124562 -0.00133243 -0.0389597
35 2 10.2202 6.35704 5.59758 0.119069 0.0506089 -0.165331
49 3 9.71962 6.71937 3.57411 0.0751 -0.291692 -0.0769511
22 1 9.83644 7.15366 9.07201 0.0277956 -0.118421 -0.023657
40 3 8.94778 7.55354 6.76612 -0.000248049 -0.0374035 -0.0801073
47 3 7.89074 5.94724 10.1299 -0.0453039 0.095037 0.16892
30 1 8.85473 8.89441 0.61968 0.0779282 -0.078826 -0.0432182
9 1 10.0346 9.65529 7.08184 -0.0236087 0.0526474 0.0982433
ITEM: TIMESTEP
5
ITEM: NUMBER OF ATOMS
65
ITEM: BOX BOUNDS pp pp pp
0.0000000000000000e+00 1.0250000000000000e+01
0.0000000000000000e+00 1.0250000000000000e+01
0.0000000000000000e+00 1.2350000000000000e+01
ITEM: ATOMS id type x y z fx fy fz
3 1 2.43634 1.79288 0.40742 0.0413176 -0.238864 0.152144
50 3 0.957614 2.19201 2.34229 0.333419 0.0633962 -0.0118072
6 1 2.00665 0.472828 8.17443 -0.00202969 -0.139976 -0.0339369
41 3 0.26921 2.02329 7.32086 0.453652 -0.0652369 0.0251979
48 3 0.807039 2.50456 11.166 -0.00219203 0.77828 -0.160541
44 3 1.79525 4.00335 1.69383 -0.152839 -0.0406099 0.22694
23 1 0.126986 3.81951 5.67797 -0.31066 -0.0139951 0.181587
60 3 2.505 4.38212 5.08956 -0.0504072 -0.0432246 0.089043
13 1 0.244581 3.75552 9.0494 0.425336 0.0518641 0.0589321
33 2 0.974021 4.43108 12.0644 -0.122343 -0.302003 -0.608841
34 2 2.02861 7.28236 6.03066 0.298045 -0.827429 -0.157086
45 3 1.85399 5.68964 9.27673 -0.242802 -0.100921 0.713849
4 1 1.51268 7.5864 2.55669 0.00986894 0.351103 0.00838313
65 4 0.69673 7.78971 0.35364 -0.0593993 -0.321221 -0.0938753
39 3 2.02974 9.31461 5.90162 0.0899797 0.462697 -0.230836
20 1 2.13046 7.74045 10.7139 0.403549 0.00931883 0.0250412
63 4 0.754392 9.22785 9.4028 -0.419036 -0.16977 0.298392
56 3 4.72634 1.93239 1.72669 0.158316 0.32794 0.109034
59 3 4.21471 0.0755315 0.997867 -0.0717185 -0.658481 0.285433
5 1 3.07914 2.19057 3.97017 -0.149221 -0.125434 0.0783794
53 3 4.98233 1.77154 5.72074 -0.111683 -0.0347047 0.177461
36 3 3.78945 1.06484 9.96359 0.266916 -0.0516007 0.0631888
18 1 4.86557 4.12989 5.3349 0.0377175 -0.18266 0.244418
32 2 2.91775 4.75948 10.9179 -0.0890801 -0.690441 -0.100972
19 1 4.8121 6.8232 1.77032 -0.254622 0.23487 0.127269
31 2 2.94178 6.23454 4.16635 -0.194542 0.248703 -0.0676909
42 3 5.06762 6.31806 4.16021 -0.137035 0.0677086 -0.12608
14 1 3.04344 5.36499 7.37198 0.294395 -0.233577 -0.47556
43 3 4.07998 6.3077 11.7135 0.0291805 0.335347 -0.175659
37 3 3.94502 9.08509 2.68857 0.153599 0.0616136 0.0759527
11 1 4.38908 9.87636 6.51432 -0.00993229 0.186599 0.295952
38 3 4.44088 9.32854 10.2225 0.192485 -0.0148504 -0.449251
21 1 7.20243 2.42767 2.69668 -0.04356 0.0718521 -0.0199706
8 1 5.26727 0.673183 3.71639 0.477521 -0.311798 0.0537437
25 1 7.39971 1.41588 5.52341 -0.0940125 -0.11621 -0.132215
64 4 7.62653 0.190615 3.53007 -0.428213 -0.256252 -0.106696
15 1 6.44109 2.29776 12.176 -0.0436134 -0.180554 -0.13367
28 1 7.14804 0.230535 9.54705 -0.553848 -0.0244725 -0.223063
57 3 5.49817 2.23806 9.91371 -0.0634648 0.361584 -0.103232
29 1 6.17234 2.8394 7.64849 -0.00889276 -0.143052 0.292013
7 1 7.52237 5.70521 2.66191 0.270312 -0.0340323 0.0200445
54 3 7.04332 7.40485 1.08016 0.693117 -0.203777 -0.0972757
2 1 7.55344 5.80973 7.56153 0.247438 -0.136488 -0.0858122
61 4 5.35997 5.1111 7.53085 -0.368104 0.0242353 -0.254913
17 1 6.43463 5.49975 12.1844 0.00325853 -0.382812 -0.0771544
26 1 5.54578 6.47422 9.56015 -0.20711 0.212876 -0.0181536
27 1 6.41585 8.37362 3.11141 0.230112 0.545815 0.00226307
58 3 5.56254 8.75424 8.5168 -0.0238626 0.369032 0.194416
1 1 6.32851 9.21705 12.3325 -0.651721 0.413548 -0.252256
24 1 9.33511 2.06054 0.521065 0.28067 -0.08078 -0.00240256
52 3 8.56385 1.27157 7.59579 -0.0884042 0.0273399 0.525433
16 1 8.83047 1.90549 10.1719 0.20167 0.120339 -0.661777
51 3 8.03224 0.449216 11.7458 -0.511359 0.0298087 0.237201
10 1 9.68381 4.18204 2.77983 0.292153 -0.110701 -0.112978
46 3 7.95431 3.8734 1.01509 -0.197567 0.669297 0.284431
62 4 8.13258 3.55691 4.64038 0.226893 0.0868494 -0.0831661
55 3 8.22176 4.09586 9.11618 -0.371726 -0.328775 -0.271034
12 1 9.09544 5.98074 0.069481 -0.202379 -0.151704 -0.0124583
35 2 10.1677 6.36186 5.60449 0.391683 -0.0480749 0.0311656
49 3 9.72658 6.70275 3.58517 0.0184506 -0.186544 -0.315713
22 1 9.89478 7.15382 9.04835 -0.314058 -0.117944 -0.0265844
40 3 8.88088 7.55304 6.7502 -0.0571162 0.0233851 0.119292
47 3 7.89096 5.87801 10.1056 0.0679365 0.757632 0.756489
30 1 8.93908 8.90686 0.542586 0.0751935 -0.0775168 -0.0733309
9 1 10.0536 9.60352 7.12688 -0.0556317 0.253453 0.00290232
ITEM: TIMESTEP
10
ITEM: NUMBER OF ATOMS
65
ITEM: BOX BOUNDS pp pp pp
0.0000000000000000e+00 1.0250000000000000e+01
0.0000000000000000e+00 1.0250000000000000e+01
0.0000000000000000e+00 1.2350000000000000e+01
ITEM: ATOMS id type x y z fx fy fz
3 1 2.35744 1.7847 0.355511 0.241178 -0.245977 0.38075
50 3 0.910351 2.19757 2.32117 0.350571 0.153867 0.0402978
6 1 2.04563 0.492977 8.1791 -0.0534698 -0.0366376 -0.180865
41 3 0.265033 2.00287 7.30672 0.690034 -0.00819982 -0.101611
48 3 0.794401 2.49727 11.1465 0.00344426 1.04368 -0.0436161
44 3 1.83173 3.97985 1.69355 -0.177008 -0.189193 0.218261
23 1 0.193277 3.80608 5.62122 -0.544725 -0.169926 0.358162
60 3 2.4918 4.40653 5.09037 -0.257436 -0.0908507 0.135881
13 1 0.146631 3.73071 9.06733 0.919296 0.0685479 -0.0176825
33 2 0.975704 4.43216 12.1022 -0.130696 -0.512454 -0.824939
4 1 1.5724 7.44374 2.54285 -0.279525 0.650133 -0.318911
34 2 2.02279 7.30848 6.0255 0.419669 -1.12725 -0.471174
45 3 1.86455 5.70616 9.2377 -0.32836 -0.320379 1.18104
20 1 2.11164 7.67825 10.6956 0.624426 0.0634535 0.115654
65 4 0.716524 7.76408 0.344751 0.156917 -0.398711 -0.148529
39 3 2.03445 9.30025 5.93886 0.152634 0.730067 -0.305164
63 4 0.808714 9.22337 9.38447 -0.696131 -0.433281 0.511333
56 3 4.68606 1.9017 1.74173 0.0610053 0.593628 0.142232
59 3 4.2233 0.0806872 0.986938 -0.0715334 -0.937235 0.203028
5 1 3.05985 2.1324 4.00536 -0.289385 -0.100762 -0.0200582
53 3 4.95774 1.81674 5.72332 -0.383805 -0.397621 0.185652
36 3 3.77555 1.08131 9.94905 0.71698 -0.243598 0.0357761
18 1 4.74883 4.14004 5.33964 0.482098 -0.0960564 0.257472
32 2 2.90554 4.81045 10.928 -0.100886 -1.01451 -0.248124
19 1 4.87989 6.77151 1.82201 -0.543824 0.447643 0.143143
31 2 2.97686 6.22565 4.17377 -0.210995 0.514501 0.146053
42 3 5.10098 6.31455 4.15166 -0.303699 0.0449639 0.0174524
14 1 3.03382 5.35808 7.40191 0.615063 -0.173137 -0.738089
43 3 4.06111 6.32246 11.726 0.0179215 0.4661 -0.117275
37 3 3.9341 9.09825 2.7105 0.316835 -0.0145238 -0.131548
11 1 4.42925 9.90246 6.4947 -0.187378 0.0774724 0.421654
38 3 4.45459 9.3489 10.2329 0.409692 0.00429146 -0.785954
21 1 7.14748 2.46159 2.70757 0.0704264 0.0493741 -0.0560794
8 1 5.23969 0.736137 3.72018 0.598439 -0.522602 0.185399
25 1 7.37415 1.38483 5.54814 -0.194378 -0.116736 -0.454983
64 4 7.65242 0.229657 3.55265 -0.441483 -0.208479 -0.461861
15 1 6.32665 2.35396 12.1789 0.331306 -0.251513 -0.0360931
28 1 7.21378 0.334451 9.53589 -1.04946 -0.389657 -0.169774
57 3 5.50015 2.26816 9.94777 -0.171146 0.358446 -0.225732
29 1 6.15714 2.85427 7.60007 0.123628 -0.116479 0.688271
61 4 5.3777 5.08905 7.52539 -0.759329 0.0993911 -0.367527
7 1 7.52496 5.7302 2.65805 0.416655 -0.138735 0.113431
54 3 7.05628 7.40981 1.0821 1.18274 -0.444281 -0.11309
2 1 7.50272 5.83961 7.55697 0.408891 -0.132885 -0.00519321
17 1 6.39473 5.53503 12.2191 0.0289183 -0.688946 -0.389588
26 1 5.5637 6.48353 9.56997 -0.20312 0.160165 -0.0968349
27 1 6.40366 8.41187 3.07432 0.283731 0.768032 0.270702
1 1 6.4349 9.16607 0.0565896 -1.30573 0.954931 -0.568919
58 3 5.61471 8.74279 8.51808 -0.237422 0.636252 0.627785
24 1 9.30265 2.12571 0.501234 0.490333 -0.288498 0.118925
52 3 8.57867 1.25645 7.55579 -0.220932 0.0494357 0.502264
16 1 8.73313 1.91514 10.224 0.444695 0.367644 -0.75876
51 3 8.04335 0.482499 11.7766 -0.747985 -0.285276 0.254688
10 1 9.62207 4.12468 2.80985 0.334817 -0.209889 -0.286422
46 3 7.94348 3.83492 0.985811 -0.476058 1.10262 0.308673
62 4 8.13502 3.5147 4.64665 0.304817 0.0275004 -0.217902
55 3 8.22258 4.09477 9.10164 -0.883537 -0.305319 -0.379819
12 1 9.12767 6.02097 0.105198 -0.16621 -0.211892 0.0867261
35 2 10.1183 6.36646 5.6117 0.590768 0.0726156 0.307124
49 3 9.73369 6.68466 3.59392 -0.00485496 -0.187772 -0.448299
22 1 9.94247 7.14998 9.0239 -0.562137 -0.0770026 0.00911471
40 3 8.81373 7.55272 6.7351 0.109808 0.112112 0.237346
47 3 7.89166 5.8143 10.0868 0.112907 1.14071 1.11524
30 1 9.02559 8.91725 0.464209 -0.0534421 0.0976522 0.236883
9 1 10.0711 9.55989 7.17212 0.0254364 0.231046 -0.0659967
ITEM: TIMESTEP
15
ITEM: NUMBER OF ATOMS
65
ITEM: BOX BOUNDS pp pp pp
0.0000000000000000e+00 1.0250000000000000e+01
0.0000000000000000e+00 1.0250000000000000e+01
0.0000000000000000e+00 1.2350000000000000e+01
ITEM: ATOMS id type x y z fx fy fz
3 1 2.28685 1.76811 0.316596 0.421997 -0.203979 0.533102
50 3 0.865724 2.20423 2.30036 0.392855 0.157384 0.113471
6 1 2.08267 0.511724 8.17766 -0.149598 0.00524018 -0.24977
41 3 0.265967 1.98238 7.29185 0.792953 0.0541364 -0.156711
48 3 0.781782 2.49775 11.1266 0.0118836 1.17494 -0.0156648
44 3 1.86693 3.95514 1.69494 -0.16728 -0.0656304 0.227085
23 1 0.240667 3.78709 5.57683 -0.769962 -0.227793 0.484678
60 3 2.47668 4.4303 5.09217 -0.449928 -0.00984569 0.077941
13 1 0.0801403 3.70819 9.08461 1.22693 0.073483 -0.0817898
33 2 0.976367 4.4293 12.1336 -0.13584 -0.634541 -0.954698
4 1 1.62269 7.32221 2.51743 -0.454881 0.502042 -0.703296
34 2 2.02021 7.32597 6.01686 0.477385 -1.22541 -0.498042
45 3 1.87269 5.72031 9.20731 -0.354988 -0.496858 1.27108
20 1 2.11395 7.61851 10.6813 0.642731 0.22146 0.192037
65 4 0.737335 7.73577 0.334878 0.27434 -0.400155 -0.15065
39 3 2.04024 9.29118 5.97398 0.0803759 0.648771 -0.122699
63 4 0.85855 9.2158 9.36933 -0.664404 -0.954937 0.365524
56 3 4.64626 1.87538 1.75784 0.0336818 0.722123 0.181374
59 3 4.23135 0.0789349 0.977472 -0.0944373 -0.991157 0.0277191
5 1 3.03075 2.07138 4.03967 -0.350656 0.151242 -0.178037
53 3 4.93032 1.85897 5.72727 -0.527907 -0.737807 0.136327
36 3 3.76691 1.096 9.93479 1.00304 -0.391343 0.0114386
18 1 4.64639 4.14723 5.35366 0.485115 0.0452682 0.320162
32 2 2.89257 4.85361 10.9362 -0.0554526 -1.22703 -0.270696
19 1 4.9293 6.7349 1.87847 -0.658418 0.508476 0.0778296
31 2 3.01035 6.22074 4.18232 -0.177412 0.723386 0.336012
42 3 5.13208 6.31138 4.14323 -0.440172 0.0465068 0.170706
14 1 3.04481 5.34516 7.40665 0.662455 -0.110768 -0.833912
43 3 4.04243 6.34067 11.7376 0.127773 0.476276 -0.0888969
37 3 3.92557 9.11129 2.73152 0.493476 -0.113896 -0.23026
11 1 4.46331 9.93138 6.48956 -0.261498 0.00389292 0.49208
38 3 4.47137 9.3693 10.2375 0.574227 0.00730158 -1.07823
21 1 7.0949 2.49744 2.71655 0.161236 0.0989562 -0.0881395
8 1 5.23245 0.78131 3.73038 0.552438 -0.600831 0.301149
25 1 7.34152 1.34956 5.55782 -0.360566 -0.139725 -0.523177
64 4 7.67525 0.2671 3.57211 -0.521115 -0.353842 -0.771363
15 1 6.22365 2.40166 12.1808 0.693222 -0.209364 0.151528
28 1 7.24412 0.425658 9.51886 -1.26224 -0.563309 -0.0815577
57 3 5.50085 2.30098 9.98015 -0.26602 0.359117 -0.355911
29 1 6.1462 2.86479 7.57509 0.237082 -0.192757 0.925944
61 4 5.39037 5.0677 7.5175 -0.97354 0.22624 -0.343516
7 1 7.54193 5.75056 2.65814 0.530046 -0.173916 0.21152
54 3 7.07792 7.4115 1.08322 1.32174 -0.573479 -0.0572942
2 1 7.46573 5.86534 7.55247 0.407503 0.00244385 0.143386
17 1 6.35582 5.54733 12.2406 0.0549774 -0.676224 -0.538673
26 1 5.57491 6.49828 9.57661 -0.0908495 0.0324879 -0.14916
27 1 6.40123 8.47624 3.0463 0.308691 0.783969 0.414463
1 1 6.49707 9.14708 0.111795 -1.57115 1.08766 -0.627651
58 3 5.66512 8.73592 8.52389 -0.432272 0.618681 0.852379
24 1 9.28684 2.1809 0.485201 0.564928 -0.494965 0.125366
52 3 8.59187 1.24169 7.51952 -0.288057 0.0649543 0.407299
16 1 8.65014 1.93739 10.2497 0.313371 0.590869 -0.805169
51 3 8.0489 0.513757 11.8093 -0.867819 -0.431751 0.247145
10 1 9.57175 4.06007 2.8301 0.30403 -0.281321 -0.40627
46 3 7.92903 3.80466 0.958888 -0.783526 1.42027 0.365982
62 4 8.14005 3.47278 4.65141 0.881557 0.0859317 -0.395802
55 3 8.2168 4.09146 9.08425 -1.29198 -0.0792105 -0.446691
12 1 9.15397 6.05396 0.143877 -0.185815 -0.240703 0.145408
35 2 10.0733 6.37169 5.62128 0.677837 0.311958 0.53702
49 3 9.74077 6.66514 3.59932 -0.0298447 -0.213561 -0.528804
22 1 9.97111 7.14348 8.99984 -0.642693 -0.0254309 0.0757249
40 3 8.74745 7.55325 6.72176 0.466773 0.224649 0.289211
47 3 7.89317 5.759 10.0763 0.130565 1.24885 1.24897
30 1 9.1103 8.93073 0.393895 -0.130172 0.205731 0.405911
9 1 10.0895 9.52414 7.21509 0.103274 0.156855 -0.134438
ITEM: TIMESTEP
20
ITEM: NUMBER OF ATOMS
65
ITEM: BOX BOUNDS pp pp pp
0.0000000000000000e+00 1.0250000000000000e+01
0.0000000000000000e+00 1.0250000000000000e+01
0.0000000000000000e+00 1.2350000000000000e+01
ITEM: ATOMS id type x y z fx fy fz
3 1 2.23066 1.74455 0.295708 0.538479 -0.104412 0.527507
50 3 0.823999 2.21206 2.28041 0.46822 0.0933443 0.215533
6 1 2.11437 0.530417 8.16788 -0.29726 -0.0460203 -0.198366
41 3 0.272706 1.96227 7.27592 0.689608 0.115209 -0.113439
48 3 0.769273 2.50699 11.1066 0.0768968 1.15383 -0.00891343
44 3 1.9009 3.92983 1.698 -0.163307 -0.0211984 0.161755
23 1 0.26142 3.76008 5.54874 -0.952845 -0.28084 0.467266
60 3 2.4582 4.45408 5.09452 -0.623085 0.198291 -0.0848999
13 1 0.0553765 3.68819 9.09932 1.22931 0.0774185 -0.0836409
33 2 0.975965 4.42144 12.1576 -0.152897 -0.836979 -1.15149
4 1 1.65806 7.2186 2.46964 -0.41556 0.466974 -0.411784
34 2 2.02127 7.33406 6.00447 0.412813 -1.12018 -0.282513
45 3 1.8782 5.73076 9.18626 -0.3099 -0.624351 1.04261
20 1 2.13806 7.5667 10.6735 0.466327 0.493915 0.201715
65 4 0.760218 7.70442 0.32377 0.508535 -0.628708 -0.342006
39 3 2.04653 9.28675 6.00821 -0.176407 0.245585 0.152947
63 4 0.90395 9.20184 9.35656 -0.590329 -1.25964 0.0643407
56 3 4.60672 1.85438 1.77534 0.0936771 0.695737 0.226715
59 3 4.2387 0.0697936 0.968225 -0.104974 -0.914005 -0.112927
5 1 2.98959 2.01546 4.06789 -0.344957 0.37426 -0.316304
53 3 4.89901 1.89578 5.73222 -0.490333 -0.950549 0.0441891
36 3 3.76556 1.10783 9.92066 0.92162 -0.440398 0.0877873
18 1 4.56197 4.15562 5.37831 0.845551 0.0665191 0.209367
32 2 2.87889 4.88764 10.9426 -0.212408 -1.09339 0.0123461
19 1 4.95648 6.71573 1.93731 -0.552383 0.496647 -0.124677
31 2 3.04294 6.22141 4.19316 0.184847 0.87502 0.185773
14 1 3.07812 5.32844 7.38314 0.447251 -0.020042 -0.667072
43 3 4.02479 6.36239 11.7485 0.427876 0.316849 -0.155356
37 3 3.92068 9.12356 2.75092 0.581959 -0.0950645 -0.18675
11 1 4.4884 9.96061 6.50143 -0.295676 -0.0169631 0.519573
38 3 4.49244 9.38979 10.234 0.661448 0.0382141 -1.25392
21 1 7.04777 2.53689 2.72243 0.216739 0.191967 -0.127764
8 1 5.24397 0.805922 3.75067 0.349987 -0.574416 0.286727
25 1 7.29721 1.30943 5.55052 -0.243673 -0.158541 -0.176162
15 1 6.14439 2.44204 12.1878 0.968196 -0.179935 0.266507
28 1 7.23168 0.497534 9.49897 -1.09525 -0.665394 0.00432755
57 3 5.49958 2.33654 10.0099 -0.331721 0.347141 -0.50646
29 1 6.14299 2.86849 7.58171 0.168149 -0.314182 0.953262
61 4 5.39653 5.04783 7.5073 -0.993599 0.306168 -0.266026
7 1 7.57702 5.76514 2.66529 0.523373 -0.123659 0.209906
54 3 7.10933 7.40891 1.08392 1.10604 -0.632893 0.0127218
42 3 5.15994 6.30856 4.13611 -0.511236 0.0368516 0.37349
2 1 7.44275 5.89094 7.55281 0.381816 0.0264159 0.230447
17 1 6.31885 5.53675 12.2442 0.110236 -0.414352 -0.407902
26 1 5.58309 6.5141 9.57807 0.0597791 -0.121298 -0.196331
27 1 6.40958 8.56751 3.0319 0.340578 0.631283 0.292619
1 1 6.50576 9.16547 0.145527 -1.44649 1.02727 -0.574976
58 3 5.71241 8.73364 8.53602 -0.538475 0.545954 0.911773
24 1 9.29008 2.21907 0.473178 0.439033 -0.651207 0.0177431
64 4 7.6945 0.302226 3.58651 -0.699213 -0.404415 -0.790533
52 3 8.60294 1.2274 7.48625 -0.309031 0.0684814 0.273387
16 1 8.57833 1.97949 10.2474 0.249048 0.5573 -0.786815
51 3 8.04798 0.541934 11.8439 -0.898884 -0.367467 0.170465
10 1 9.53168 3.98566 2.83642 0.186804 -0.329221 -0.460142
46 3 7.90873 3.78489 0.934601 -1.00245 1.47601 0.298356
62 4 8.15083 3.43148 4.65352 1.05695 0.281837 -0.4859
55 3 8.20144 4.08758 9.06349 -1.45119 0.208299 -0.466668
12 1 9.17375 6.07881 0.187867 -0.240079 -0.217103 0.24335
35 2 10.0331 6.37939 5.6352 0.292732 0.588814 0.840699
49 3 9.74768 6.64395 3.60083 0.0580408 -0.326388 -0.465642
22 1 9.97789 7.13606 8.97844 -0.563795 0.0178355 0.161141
40 3 8.6847 7.55551 6.71055 0.976782 0.397574 0.289246
47 3 7.89568 5.71292 10.0752 0.162696 1.14087 1.29913
30 1 9.19048 8.95106 0.336528 -0.216471 0.207564 0.172942
9 1 10.111 9.49408 7.25337 0.0224856 0.167759 -0.222282
