ITEM: TIMESTEP
0
ITEM: NUMBER OF ATOMS
65
ITEM: BOX BOUNDS pp pp pp
0.0000000000000000e+00 1.0250000000000000e+01
0.0000000000000000e+00 1.0250000000000000e+01
0.0000000000000000e+00 1.2350000000000000e+01
ITEM: ATOMS id type x y z fx fy fz
3 1 2.5167 1.79302 0.46485 -0.22661 -0.119439 -0.0371836
50 3 1.00737 2.18691 2.36333 0.190627 0.0268681 0.0939247
6 1 1.9675 0.44788 8.16863 0.104009 -0.233082 0.0641252
41 3 0.27674 2.04323 7.33525 -0.149373 -0.00897298 0.208674
48 3 0.81966 2.51768 11.1843 -0.000163877 0.326762 -0.0289523
44 3 1.75768 4.02661 1.69576 0.0447486 0.294736 -0.113477
23 1 0.05007 3.83201 5.74074 0.0232137 0.0658041 -0.108133
60 3 2.51776 4.35743 5.08938 0.0801556 -0.0111935 -0.122299
13 1 0.35716 3.78242 9.03353 -0.161843 0.0796612 0.149999
33 2 0.97141 4.42769 12.022 -0.136571 0.0555783 -0.286129
34 2 2.03673 7.24987 6.03468 0.079637 -0.593753 0.36333
45 3 1.84162 5.67236 9.32099 -0.0807206 0.0266303 0.0604401
4 1 1.45284 7.74107 2.56988 0.21008 -0.169412 0.0121423
65 4 0.67654 7.81318 0.36192 -0.217988 -0.13958 0.0513158
39 3 2.02569 9.33233 5.86273 -0.0702395 0.0378538 0.124645
20 1 2.16301 7.80323 10.7332 -0.0693362 0.0928695 -0.0528288
63 4 0.69725 9.23103 9.42311 -0.169028 -0.0601692 -0.0376083
56 3 4.7678 1.96554 1.7125 0.350266 0.181271 0.242274
59 3 4.20555 0.06549 1.0109 0.0256479 -0.357931 0.26842
5 1 3.09319 2.24493 3.93741 -0.0259743 0.121314 0.0406581
53 3 5.00612 1.72604 5.71945 0.20561 0.291933 0.0435326
36 3 3.80545 1.04788 9.97858 0.00595182 0.000168738 0.0722899
18 1 4.98429 4.11339 5.33877 -0.246021 -0.110378 0.287501
32 2 2.92928 4.70325 10.9071 -0.133367 -0.24355 0.0132331
19 1 4.73562 6.88289 1.72292 0.062257 -0.0539901 -0.07586
31 2 2.90525 6.24531 4.15844 -0.0761382 0.068814 -0.413715
42 3 5.03322 6.3221 4.16781 0.0571038 0.084435 -0.0778233
14 1 3.06277 5.36374 7.32572 -0.254408 -0.319455 -0.0257507
43 3 4.09908 6.29537 11.6997 -0.0314274 -0.0181766 -0.121348
37 3 3.95713 9.07225 2.66721 0.0838469 -0.124499 0.000277456
11 1 4.34825 9.85664 6.544 0.0971643 0.207249 0.0565895
38 3 4.42858 9.30806 10.2087 -0.0167445 -0.0435489 -0.0339128
21 1 7.25581 2.39651 2.68508 -0.0713726 0.00550842 0.018109
8 1 5.31092 0.59986 3.7148 0.0799391 0.110162 0.12509
25 1 7.42213 1.44341 5.49379 -0.0709233 0.08043 0.191191
64 4 7.59796 0.14994 3.50658 0.0133684 -0.0710117 0.0101701
15 1 6.55437 2.23571 12.1689 -0.319494 0.143669 0.011669
28 1 7.06255 0.12552 9.55086 -0.0434639 0.104336 -0.180376
57 3 5.49571 2.21062 9.87884 -0.0266263 0.115453 -0.0392955
29 1 6.18745 2.81943 7.70693 -0.0224718 -0.0510802 -0.343073
7 1 7.52918 5.67914 2.66666 0.118426 0.204969 -0.0162196
54 3 7.0355 7.39837 1.0776 -0.12625 0.101044 0.0863322
2 1 7.612 5.77518 7.56331 -0.0316797 -0.104426 -0.301127
61 4 5.3398 5.13337 7.53466 0.282099 -0.0344724 0.112642
17 1 6.47464 5.45145 12.1469 0.185582 -0.0767716 0.142643
26 1 5.52084 6.47203 9.54968 -0.149225 0.157008 0.0523655
27 1 6.43605 8.35398 3.14836 0.167117 0.0943124 -0.395594
58 3 5.51011 8.76842 8.51708 0.0915588 0.0449764 -0.292149
1 1 6.20008 9.28208 12.2497 0.160945 -0.312596 0.279288
24 1 9.37726 1.99226 0.54063 0.206656 0.128857 -0.0762132
52 3 8.54837 1.28691 7.63965 0.0507097 0.116323 0.409447
16 1 8.93398 1.9007 10.0977 -0.198071 0.0186444 -0.241419
51 3 8.01733 0.41612 11.7167 -0.076485 0.268482 0.178911
10 1 9.75541 4.23566 2.7458 0.0167466 0.137917 0.169804
46 3 7.96365 3.91683 1.04638 -0.000736565 0.184324 -0.0854473
62 4 8.13165 3.59947 4.63345 0.00360688 -0.240781 -0.0741895
55 3 8.21813 4.09472 9.12869 0.178737 -0.134076 -0.133601
12 1 9.05656 5.93554 0.03356 -0.103439 -0.135641 0.0161848
35 2 10.2202 6.35704 5.59758 0.0536443 -0.123879 -0.127424
49 3 9.71962 6.71937 3.57411 0.0089394 -0.379381 -0.0175134
22 1 9.83644 7.15366 9.07201 0.0857878 -0.0741319 -0.0498678
40 3 8.94778 7.55354 6.76612 0.0664459 0.127816 -0.103829
47 3 7.89074 5.94724 10.1299 -0.115759 0.182664 0.194198
30 1 8.85473 8.89441 0.61968 0.00660643 -0.128789 -0.216777
9 1 10.0346 9.65529 7.08184 0.0247177 0.185321 0.077721
ITEM: TIMESTEP
5
ITEM: NUMBER OF ATOMS
65
ITEM: BOX BOUNDS pp pp pp
0.0000000000000000e+00 1.0250000000000000e+01
0.0000000000000000e+00 1.0250000000000000e+01
0.0000000000000000e+00 1.2350000000000000e+01
ITEM: ATOMS id type x y z fx fy fz
3 1 2.43532 1.79263 0.407398 0.0107724 -0.282419 0.186606
50 3 0.957279 2.19248 2.3429 0.298002 0.254444 0.168018
6 1 2.00795 0.47243 8.17409 0.0307278 -0.161883 0.0444446
41 3 0.268303 2.02372 7.32077 0.290816 0.0625976 0.0272875
48 3 0.807085 2.50409 11.1671 0.0131059 0.689795 0.0532176
44 3 1.79557 4.00352 1.69287 -0.0436585 -0.0661437 0.00185743
23 1 0.127757 3.82039 5.67788 -0.295885 0.103158 0.205196
60 3 2.50501 4.38168 5.08917 -0.0603672 -0.210091 -0.0282165
13 1 0.243412 3.75479 9.04971 0.348846 -0.00217474 0.0635435
33 2 0.973798 4.43139 12.0645 -0.170949 -0.22763 -0.621118
34 2 2.02826 7.28137 6.03117 0.12503 -1.15464 0.108826
45 3 1.854 5.68927 9.27677 -0.297008 -0.167964 0.695551
4 1 1.51366 7.58429 2.55754 0.0720528 0.271179 0.160954
65 4 0.696813 7.78995 0.353882 -0.0869464 -0.242098 0.0615028
39 3 2.02957 9.31501 5.90176 0.0773925 0.730925 -0.31129
20 1 2.12842 7.74211 10.7132 0.293411 0.108908 -0.0543296
63 4 0.754258 9.22807 9.40265 -0.384955 -0.0795244 0.225446
56 3 4.72667 1.93295 1.72722 0.18408 0.56523 0.281099
59 3 4.2151 0.0752649 0.997799 -0.0196516 -0.709481 0.310576
5 1 3.07978 2.19174 3.9691 -0.0635714 -0.112227 -0.025116
53 3 4.9824 1.77183 5.7204 -0.029188 0.155416 0.0442271
36 3 3.78985 1.06476 9.9637 0.301792 -0.0682112 0.118972
18 1 4.86418 4.13211 5.3345 -0.146773 -0.0777381 0.167277
32 2 2.91732 4.75942 10.9175 -0.269782 -0.674653 -0.20888
19 1 4.81201 6.82228 1.76787 -0.222258 0.106329 -0.0368545
31 2 2.94186 6.23506 4.16562 -0.174012 0.320159 -0.298181
42 3 5.06796 6.3179 4.16094 0.0190156 -0.0144427 0.0580474
14 1 3.04248 5.36559 7.37347 0.234443 -0.104227 -0.458879
43 3 4.07989 6.3075 11.714 0.0732001 0.257548 -0.0153129
37 3 3.94512 9.0849 2.68746 0.134289 -0.0103703 -0.19476
11 1 4.38971 9.87523 6.51399 0.0571086 0.0811186 0.255037
38 3 4.44114 9.32843 10.2231 0.227295 -0.0592421 -0.309418
21 1 7.20417 2.4247 2.69706 0.0414676 -0.0673895 0.0255276
8 1 5.26573 0.673904 3.71791 0.41279 -0.316072 0.127568
25 1 7.39795 1.41672 5.52445 -0.169723 -0.038751 -0.117901
64 4 7.62678 0.190745 3.53022 -0.364075 -0.188096 0.0280265
15 1 6.44006 2.29926 12.1766 -0.103526 -0.127863 -0.118871
28 1 7.15068 0.227239 9.54647 -0.359226 -0.232951 -0.234135
57 3 5.49805 2.23754 9.91339 -0.060188 0.26268 -0.293596
29 1 6.17225 2.84161 7.64559 -0.0597194 -0.0549033 0.120667
7 1 7.5222 5.70665 2.66191 0.246321 0.018786 0.0439913
54 3 7.0425 7.40507 1.08028 0.42038 -0.166632 -0.0190111
2 1 7.55472 5.81112 7.55966 0.328937 -0.0409972 -0.107825
61 4 5.36053 5.11082 7.53127 -0.162947 -0.0472259 -0.100923
17 1 6.4387 5.49814 12.1838 0.265047 -0.42758 -0.140994
26 1 5.54511 6.47397 9.56062 -0.311428 0.200544 0.0580834
27 1 6.41602 8.37161 3.10918 0.250714 0.414539 -0.249877
58 3 5.56254 8.75436 8.51637 -0.0223043 0.330188 0.119778
1 1 6.32817 9.21542 12.3351 -0.41569 0.253398 -0.166993
24 1 9.33756 2.06181 0.522841 0.372574 -0.0806989 0.0895972
52 3 8.56366 1.27183 7.59594 -0.233417 0.0185057 0.618561
16 1 8.8318 1.90566 10.1737 0.243046 0.201691 -0.434762
51 3 8.03279 0.449088 11.7457 -0.319256 -0.0457497 0.19689
10 1 9.68162 4.18412 2.78242 0.176189 0.0212183 0.0579217
46 3 7.95413 3.87386 1.01465 -0.198365 0.855332 0.302054
62 4 8.13203 3.55691 4.64038 0.0415869 0.0669072 -0.133019
55 3 8.22227 4.09495 9.1159 -0.157739 -0.730198 -0.431212
12 1 9.09582 5.97884 0.0697047 -0.187058 -0.200071 -0.0791742
35 2 10.1676 6.36119 5.60461 0.404513 -0.221556 0.033971
49 3 9.7262 6.70253 3.58509 -0.142892 -0.164884 -0.495257
22 1 9.89526 7.154 9.04788 -0.328813 -0.17473 -0.0610878
40 3 8.88118 7.5537 6.75011 0.0543361 0.217174 0.0779445
47 3 7.89067 5.87863 10.1056 -0.0215558 1.05389 0.718605
30 1 8.93708 8.90562 0.540469 -0.108031 -0.174255 -0.136852
9 1 10.0543 9.60532 7.12679 -0.0583222 0.304104 0.0269742
ITEM: TIMESTEP
10
ITEM: NUMBER OF ATOMS
65
ITEM: BOX BOUNDS pp pp pp
0.0000000000000000e+00 1.0250000000000000e+01
0.0000000000000000e+00 1.0250000000000000e+01
0.0000000000000000e+00 1.2350000000000000e+01
ITEM: ATOMS id type x y z fx fy fz
3 1 2.35431 1.78269 0.356558 0.243881 -0.344299 0.445081
50 3 0.909414 2.1999 2.3237 0.388261 0.397648 0.196877
6 1 2.0494 0.49155 8.18096 -0.0737959 -0.0225843 -0.0212737
41 3 0.261986 2.00464 7.30658 0.627607 0.0930904 -0.0221383
48 3 0.79458 2.49563 11.1503 -0.0194261 0.959557 0.058705
44 3 1.83316 3.98 1.68994 -0.0861104 -0.305492 0.024442
23 1 0.195734 3.81173 5.62174 -0.481961 -0.00998569 0.406778
60 3 2.49176 4.40443 5.08871 -0.28109 -0.29525 -0.00124295
13 1 0.141758 3.72738 9.06802 0.859991 0.0143885 -0.0473721
33 2 0.974914 4.43341 12.1022 -0.127082 -0.366887 -0.831479
4 1 1.57676 7.43698 2.55025 -0.174263 0.688735 0.0741961
34 2 2.02071 7.30403 6.02856 0.0794976 -1.46798 -0.0684867
45 3 1.86419 5.705 9.23768 -0.444426 -0.235596 1.1686
20 1 2.10378 7.68496 10.6915 0.535781 0.140245 0.023644
65 4 0.716498 7.76508 0.346289 0.0435634 -0.322139 0.119446
39 3 2.03402 9.30309 5.9386 0.221113 1.29251 -0.484044
63 4 0.808737 9.22452 9.38366 -0.481231 -0.159483 0.401077
56 3 4.68696 1.90456 1.74401 0.0807375 0.882282 0.284219
59 3 4.2245 0.0797243 0.986992 -0.0591556 -1.01832 0.287817
5 1 3.06364 2.13501 4.00016 -0.260882 -0.233372 -0.03562
53 3 4.95847 1.81872 5.72168 -0.238099 -0.101686 0.0462308
36 3 3.77665 1.08096 9.9497 0.668189 -0.314377 0.169162
18 1 4.7406 4.14801 5.33641 0.39636 -0.0555132 0.183868
32 2 2.90329 4.81041 10.9263 -0.335458 -1.00641 -0.373443
19 1 4.8807 6.76537 1.81132 -0.496975 0.2652 -0.0761727
31 2 2.97712 6.2272 4.17049 -0.2377 0.446024 -0.176741
42 3 5.10283 6.31362 4.1545 -0.051129 -0.08726 0.176757
14 1 3.02957 5.36351 7.40573 0.481567 0.0128425 -0.739984
43 3 4.06125 6.32147 11.7281 0.143607 0.337449 0.090525
37 3 3.93412 9.0974 2.70626 0.196468 -0.0292601 -0.338172
11 1 4.43244 9.89666 6.49263 -0.183313 -0.040634 0.33929
38 3 4.45535 9.34836 10.235 0.347768 -0.0614124 -0.666208
21 1 7.15385 2.45092 2.70986 0.119072 -0.0154263 0.00237468
8 1 5.23443 0.737405 3.72575 0.58923 -0.599688 0.225453
25 1 7.36848 1.38971 5.55072 -0.0991309 0.128833 -0.498962
64 4 7.65334 0.23032 3.55382 -0.411057 -0.198471 -0.277763
15 1 6.32254 2.35883 12.1808 0.287634 -0.236198 -0.0190874
28 1 7.2256 0.32086 9.53434 -0.8294 -0.561057 -0.157484
57 3 5.49996 2.26633 9.94571 -0.120341 0.242651 -0.55199
29 1 6.15529 2.86163 7.58824 0.03509 -0.11634 0.486504
61 4 5.3802 5.08803 7.52725 -0.548237 0.0754267 -0.22768
7 1 7.52364 5.735 2.65881 0.330238 -0.100733 0.146858
54 3 7.05258 7.41052 1.08292 0.85435 -0.450444 0.0251824
2 1 7.50795 5.84502 7.552 0.453715 -0.20914 -0.0335345
17 1 6.41171 5.53029 12.2158 0.258568 -0.666991 -0.420377
26 1 5.55886 6.48268 9.57349 -0.364984 0.176423 0.0267444
27 1 6.40434 8.40322 3.06178 0.221176 0.592684 0.0355416
1 1 6.44198 9.15763 0.0643468 -0.848618 0.819161 -0.678566
58 3 5.61466 8.7428 8.51671 -0.307432 0.57823 0.677328
24 1 9.3106 2.12822 0.508041 0.469024 -0.397264 0.214807
52 3 8.57724 1.25691 7.55681 -0.44961 -0.0788395 0.681422
16 1 8.73736 1.91817 10.2351 0.482518 0.496908 -0.468562
51 3 8.04588 0.481691 11.7761 -0.501498 -0.391417 0.18204
10 1 9.61381 4.13345 2.82094 0.281393 -0.0483173 -0.098981
46 3 7.94313 3.83712 0.985081 -0.365805 1.2228 0.548343
62 4 8.13266 3.51461 4.64636 0.0937492 0.0557107 -0.271881
55 3 8.22519 4.08988 9.09984 -0.593466 -1.0096 -0.701576
12 1 9.12874 6.01548 0.103336 -0.207702 -0.158786 -0.075019
35 2 10.1181 6.36374 5.61193 0.673185 -0.143936 0.206086
49 3 9.73177 6.68436 3.59254 -0.199338 -0.0691875 -0.693262
22 1 9.94318 7.14845 9.02172 -0.564335 -0.201725 -0.0490891
40 3 8.81515 7.55547 6.73458 0.254128 0.292855 0.118391
47 3 7.89039 5.8177 10.0866 -0.000882399 1.55225 0.931327
30 1 9.01564 8.91192 0.457256 -0.206058 0.104613 0.122813
9 1 10.0721 9.56545 7.17271 -0.0674652 0.262986 -0.0217397
ITEM: TIMESTEP
15
ITEM: NUMBER OF ATOMS
65
ITEM: BOX BOUNDS pp pp pp
0.0000000000000000e+00 1.0250000000000000e+01
0.0000000000000000e+00 1.0250000000000000e+01
0.0000000000000000e+00 1.2350000000000000e+01
ITEM: ATOMS id type x y z fx fy fz
3 1 2.28167 1.76103 0.320841 0.448314 -0.316959 0.588755
50 3 0.864436 2.21025 2.306 0.454945 0.431856 0.255543
6 1 2.08829 0.50981 8.187 -0.179154 0.0862606 -0.117245
41 3 0.260289 1.98625 7.29227 0.792281 0.100431 0.0086889
48 3 0.7819 2.4943 11.1339 -0.0853317 1.08368 0.00424618
44 3 1.87011 3.95444 1.68723 -0.127746 -0.190048 0.0771544
23 1 0.246937 3.80304 5.5796 -0.648462 -0.0517506 0.525436
60 3 2.47642 4.42499 5.08825 -0.426146 -0.348301 0.0561657
13 1 0.0701873 3.70074 9.08509 1.31581 0.103423 -0.0673569
33 2 0.974975 4.43258 12.1335 -0.134377 -0.436109 -0.957217
4 1 1.63355 7.31231 2.54448 -0.523518 0.779571 -0.347033
34 2 2.01377 7.31543 6.02552 0.0071449 -1.52246 -0.070661
45 3 1.87109 5.71899 9.20716 -0.501205 -0.251673 1.3173
20 1 2.0971 7.63283 10.6708 0.551758 0.226087 0.158631
65 4 0.736429 7.73805 0.33949 0.0793017 -0.337806 0.148876
39 3 2.04012 9.30072 5.97199 0.267078 1.50665 -0.366119
63 4 0.860108 9.21978 9.36723 -0.392851 -0.416594 0.384535
56 3 4.64793 1.88265 1.76294 0.0952548 0.998172 0.264021
59 3 4.23344 0.076668 0.97825 -0.135547 -1.10243 0.11348
5 1 3.03866 2.07075 4.02989 -0.39386 -0.136271 -0.0717491
53 3 4.93275 1.86477 5.72329 -0.40331 -0.500259 0.0283136
36 3 3.76843 1.09487 9.93697 0.991998 -0.490977 0.207817
18 1 4.62937 4.16214 5.34504 0.798804 -0.0463474 0.258198
32 2 2.88658 4.85354 10.9322 -0.414996 -1.3406 -0.468902
19 1 4.93244 6.71742 1.85198 -0.66704 0.342696 -0.172973
31 2 3.01059 6.22279 4.17398 -0.240629 0.523997 -0.0595395
42 3 5.13732 6.30871 4.14936 -0.120475 -0.110799 0.272064
14 1 3.03264 5.36173 7.41295 0.459781 0.0784124 -0.78912
43 3 4.04376 6.33795 11.7428 0.324897 0.346859 0.152484
37 3 3.92463 9.10965 2.72257 0.302173 -0.0920783 -0.412954
11 1 4.46928 9.91703 6.48275 -0.294073 -0.051753 0.329768
38 3 4.47215 9.36782 10.2421 0.414449 -0.0787684 -0.957456
21 1 7.10762 2.47676 2.72259 0.180218 0.0930326 -0.0792728
8 1 5.22309 0.780486 3.74132 0.581252 -0.733883 0.292045
25 1 7.33527 1.36674 5.5607 -0.0912316 0.193634 -0.530386
64 4 7.67707 0.268398 3.57552 -0.507616 -0.394901 -0.62251
15 1 6.2149 2.41076 12.1846 0.646045 -0.137656 0.183138
28 1 7.27236 0.395643 9.51671 -1.11874 -0.705406 -0.0660973
57 3 5.50096 2.29695 9.97393 -0.190833 0.205703 -0.713365
29 1 6.13964 2.87735 7.54736 0.165555 -0.272377 0.711665
61 4 5.39622 5.0658 7.52174 -0.804799 0.293497 -0.245756
7 1 7.53647 5.76011 2.6608 0.371883 -0.134691 0.24359
54 3 7.06894 7.41265 1.08574 1.02893 -0.623622 0.0779257
2 1 7.47646 5.87202 7.54334 0.382425 -0.269921 0.089589
17 1 6.39359 5.54001 12.2336 0.21346 -0.650061 -0.570017
26 1 5.56049 6.49735 9.58739 -0.235003 0.0652448 0.00016762
27 1 6.4004 8.4548 3.01574 0.204306 0.546617 0.369385
1 1 6.52688 9.12697 0.121484 -1.10531 0.935501 -0.790494
58 3 5.66448 8.7354 8.52184 -0.595657 0.568541 0.881325
24 1 9.29958 2.18114 0.500473 0.446405 -0.614145 0.259478
52 3 8.58751 1.24141 7.52276 -0.514119 -0.147066 0.661816
16 1 8.65921 1.94704 10.2799 0.514635 0.541927 -0.593793
51 3 8.05526 0.511514 11.8079 -0.5947 -0.50411 0.158357
10 1 9.55576 4.0813 2.85612 0.380188 -0.044659 -0.235491
46 3 7.92935 3.80948 0.959602 -0.569388 1.42015 0.710231
62 4 8.13425 3.47284 4.65052 0.402403 0.2569 -0.325523
55 3 8.22369 4.07737 9.07856 -0.932432 -0.986968 -0.855921
12 1 9.15441 6.04666 0.134397 -0.24674 -0.121938 -0.0936363
35 2 10.0737 6.36519 5.62078 0.845382 -0.0178903 0.261878
49 3 9.73586 6.66562 3.59492 -0.195931 -0.0468834 -0.6417
22 1 9.97203 7.13595 8.99388 -0.604442 -0.193272 -0.0125273
40 3 8.75103 7.55943 6.71991 0.57121 0.3653 0.0943138
47 3 7.89005 5.76835 10.0745 -0.0324429 1.82429 0.94234
30 1 9.08757 8.92137 0.378174 -0.104232 0.255922 0.261152
9 1 10.0876 9.53479 7.21776 -0.105949 0.247097 -0.115062
ITEM: TIMESTEP
20
ITEM: NUMBER OF ATOMS
65
ITEM: BOX BOUNDS pp pp pp
0.0000000000000000e+00 1.0250000000000000e+01
0.0000000000000000e+00 1.0250000000000000e+01
0.0000000000000000e+00 1.2350000000000000e+01
ITEM: ATOMS id type x y z fx fy fz
3 1 2.22436 1.72855 0.305045 0.596756 -0.20878 0.55812
50 3 0.822834 2.22383 2.29025 0.537682 0.390844 0.378227
6 1 2.12088 0.530543 8.18924 -0.302535 0.0390792 -0.154935
41 3 0.264459 1.96861 7.27798 0.78963 0.134698 0.0169095
48 3 0.768602 2.50104 11.1176 -0.0886557 1.05741 -0.0179148
44 3 1.90614 3.92739 1.68505 -0.161675 -0.120695 0.0728376
23 1 0.275679 3.79254 5.55511 -0.803156 -0.0789074 0.477469
60 3 2.45797 4.44298 5.08822 -0.409032 -0.378641 0.141797
13 1 0.0432593 3.67765 9.10015 1.40942 0.190832 -0.0119971
33 2 0.973976 4.42841 12.1574 -0.161741 -0.414598 -0.955542
4 1 1.67267 7.21452 2.52751 -0.753464 0.834502 -0.583095
34 2 2.00689 7.31511 6.02203 -0.0652692 -1.36373 0.0660428
45 3 1.87427 5.73108 9.18637 -0.49024 -0.298974 1.20649
20 1 2.10909 7.58906 10.6553 0.369382 0.469953 0.238621
65 4 0.756842 7.70878 0.3337 0.00840372 -0.232178 0.15147
39 3 2.0481 9.30932 6.0027 0.110022 1.18055 -0.139063
63 4 0.908808 9.21225 9.35339 -0.387937 -0.598692 0.377008
56 3 4.60961 1.86816 1.7839 0.166209 0.973108 0.262244
59 3 4.24141 0.0653685 0.970359 -0.15259 -1.07147 -0.0570753
5 1 3.00035 2.00223 4.05681 -0.384959 0.143293 -0.220759
53 3 4.90406 1.90712 5.72508 -0.442641 -0.873492 -0.027073
36 3 3.76751 1.10518 9.92586 1.0737 -0.538214 0.350089
18 1 4.54682 4.17431 5.36205 1.47084 -0.148122 0.134133
32 2 2.86674 4.88622 10.9345 -0.315427 -1.70488 -0.433817
19 1 4.96156 6.68117 1.88656 -0.654183 0.36068 -0.306191
31 2 3.04206 6.2225 4.177 -0.37938 0.640714 -0.00102772
14 1 3.0514 5.36264 7.39332 0.320156 0.136444 -0.623875
43 3 4.0287 6.357 11.7587 0.525267 0.265661 0.167602
37 3 3.91738 9.12128 2.73585 0.393969 -0.0644005 -0.40027
11 1 4.49604 9.93562 6.48436 -0.342341 -0.0466962 0.314015
38 3 4.49207 9.38672 10.242 0.438641 -0.0664064 -1.10126
21 1 7.0675 2.50588 2.73244 0.20033 0.206472 -0.200297
8 1 5.23144 0.798489 3.7667 0.39554 -0.724056 0.23182
25 1 7.29961 1.35018 5.55342 0.12315 0.138818 -0.155497
15 1 6.12927 2.45763 12.1945 0.877294 -0.0765475 0.309093
28 1 7.28109 0.446404 9.49696 -1.1115 -0.710902 0.0696926
57 3 5.50054 2.32915 9.99686 -0.241592 0.15515 -0.807289
29 1 6.12955 2.88368 7.53076 0.247613 -0.414808 0.790232
61 4 5.40684 5.04553 7.51457 -0.924058 0.490752 -0.220331
7 1 7.56199 5.78074 2.67105 0.326233 -0.108756 0.265137
54 3 7.09293 7.41013 1.08914 0.991083 -0.729078 0.104121
42 3 5.17095 6.30296 4.14626 -0.173081 -0.136922 0.358949
2 1 7.45819 5.88973 7.53781 0.321976 -0.325925 0.217368
17 1 6.38295 5.52766 12.2322 0.190156 -0.434088 -0.513128
26 1 5.55431 6.51412 9.60124 0.0201157 -0.108543 -0.0494589
27 1 6.40364 8.52525 2.98163 0.218046 0.413685 0.417647
1 1 6.57391 9.12839 0.151534 -1.19229 0.827252 -0.772163
58 3 5.70996 8.73221 8.53349 -0.774774 0.523986 0.913047
24 1 9.30372 2.21309 0.501625 0.296628 -0.698876 0.200216
64 4 7.69729 0.3039 3.59318 -0.720299 -0.46972 -0.661858
52 3 8.59394 1.22481 7.49363 -0.531824 -0.150309 0.617189
16 1 8.5988 1.99404 10.3046 0.495297 0.344001 -0.60697
51 3 8.06022 0.537703 11.8409 -0.606505 -0.415278 0.0952388
10 1 9.51071 4.02766 2.88326 0.431462 0.00742746 -0.335151
46 3 7.91131 3.79236 0.939242 -0.713618 1.39126 0.587878
62 4 8.13822 3.43286 4.65258 0.152728 0.621302 -0.203847
55 3 8.21529 4.0575 9.05083 -1.06985 -0.786124 -0.909108
12 1 9.17135 6.07348 0.162449 -0.33421 -0.151182 -0.095693
35 2 10.036 6.36647 5.6315 1.05164 0.0663949 0.101745
49 3 9.73855 6.6465 3.59253 -0.0784881 -0.0419519 -0.469048
22 1 9.98029 7.1168 8.96571 -0.506087 -0.159327 0.0681112
40 3 8.69119 7.56618 6.70593 0.979365 0.472389 0.0483405
47 3 7.88947 5.73256 10.0694 -0.0484445 1.88479 0.911241
30 1 9.15596 8.93907 0.307111 0.0171217 0.173185 0.0561302
9 1 10.0991 9.51296 7.25874 -0.224015 0.316634 -0.242531
ITEM: TIMESTEP
25
ITEM: NUMBER OF ATOMS
65
ITEM: BOX BOUNDS pp pp pp
0.0000000000000000e+00 1.0250000000000000e+01
0.0000000000000000e+00 1.0250000000000000e+01
0.0000000000000000e+00 1.2350000000000000e+01
ITEM: ATOMS id type x y z fx fy fz
3 1 2.18754 1.68882 0.308369 0.668527 -0.0685805 0.435152
50 3 0.785218 2.24034 2.27732 0.672104 0.277577 0.509412
6 1 2.14314 0.552442 8.18611 -0.383523 -0.102158 -0.178626
41 3 0.274475 1.952 7.26378 0.61017 0.26039 0.0132196
48 3 0.754675 2.51568 11.1011 0.018741 0.899194 0.0499402
44 3 1.94101 3.89941 1.6834 -0.22472 -0.00451169 0.0450623
23 1 0.276699 3.77929 5.54719 -0.905881 -0.10349 0.426181
60 3 2.43641 4.45821 5.08921 -0.362735 -0.339793 0.156867
13 1 0.0639817 3.66114 9.11456 1.03384 0.278501 -0.0461914
33 2 0.971709 4.421 12.174 -0.191874 -0.360616 -0.876659
4 1 1.68597 7.14519 2.4916 -0.792281 0.73692 -0.422088
34 2 1.99946 7.30425 6.01903 -0.16596 -1.03693 0.204488
45 3 1.8738 5.74092 9.17455 -0.417844 -0.388581 0.976204
20 1 2.13376 7.56145 10.648 0.114805 0.692933 0.269568
65 4 0.777374 7.67788 0.328892 -0.0434343 -0.103787 0.089631
39 3 2.05697 9.3267 6.03243 0.0375957 0.611728 0.0357026
63 4 0.95502 9.20068 9.342 -0.342936 -0.669806 0.259054
56 3 4.57248 1.86089 1.80688 0.272969 0.8332 0.254372
59 3 4.24827 0.0460436 0.962066 -0.123608 -0.932632 -0.137078
5 1 2.9489 1.93844 4.07602 -0.263984 0.408369 -0.398087
53 3 4.87207 1.94308 5.72668 -0.323599 -1.12394 -0.0729669
36 3 3.77452 1.11154 9.91744 0.903021 -0.447773 0.605668
18 1 4.51392 4.18148 5.38373 1.71114 -0.232921 -0.0356895
32 2 2.84452 4.9058 10.9335 -0.0205012 -1.88832 -0.266682
19 1 4.96849 6.65729 1.91056 -0.461114 0.344439 -0.439446
31 2 3.07063 6.22718 4.17993 -0.532586 0.718466 -0.100985
14 1 3.08129 5.36841 7.35249 0.154069 0.227656 -0.258532
43 3 4.01761 6.37802 11.7758 0.734866 0.0836039 0.0308983
37 3 3.91307 9.13249 2.74617 0.456617 0.0217794 -0.343004
11 1 4.51096 9.95262 6.49688 -0.383514 -0.0416102 0.289359
38 3 4.5153 9.40519 10.2337 0.39671 -0.0359997 -1.09112
21 1 7.03401 2.54214 2.73544 0.135657 0.282142 -0.288596
8 1 5.25327 0.791851 3.79999 0.102159 -0.532212 0.0936271
25 1 7.26815 1.33852 5.54098 0.348017 0.119059 0.317129
15 1 6.0734 2.50146 12.2149 0.927478 -0.182124 0.321967
28 1 7.25191 0.472608 9.47959 -0.837143 -0.685275 0.199627
57 3 5.49825 2.36238 10.0137 -0.322676 -0.104747 -0.956228
29 1 6.1279 2.87579 7.54127 0.266423 -0.486858 0.741457
61 4 5.41126 5.02851 7.50588 -0.929659 0.59804 -0.21475
7 1 7.59855 5.79767 2.69025 0.147129 -0.0638928 0.179685
54 3 7.12434 7.40217 1.09332 0.760909 -0.730025 0.0897008
42 3 5.20333 6.29616 4.14581 -0.25711 -0.173753 0.379378
2 1 7.45096 5.89627 7.5396 0.260893 -0.36888 0.26651
17 1 6.37929 5.5015 12.214 0.264587 0.0911957 -0.169372
26 1 5.54866 6.52727 9.61346 0.223121 -0.244583 -0.0800196
27 1 6.41448 8.60994 2.96136 0.217492 0.179676 0.23543
1 1 6.58004 9.15834 0.154989 -1.10548 0.631421 -0.675746
58 3 5.74981 8.73297 8.55195 -0.832924 0.51673 0.800874
24 1 9.31791 2.22097 0.509488 0.0481424 -0.721186 0.0515404
64 4 7.71272 0.336283 3.60636 -0.825902 -0.546632 -0.730689
52 3 8.59643 1.20707 7.46908 -0.489073 -0.107456 0.556491
16 1 8.55526 2.05337 10.3086 0.419555 0.185369 -0.456054
51 3 8.06064 0.560836 11.8747 -0.597211 -0.298957 -0.0281555
10 1 9.48052 3.97429 2.89897 0.455915 0.1033 -0.374005
46 3 7.88793 3.78559 0.923189 -0.731398 1.22509 0.336583
62 4 8.14336 3.39697 4.65325 0.0490541 0.888677 -0.0822937
55 3 8.19895 4.03169 9.01622 -0.962076 -0.542596 -0.921405
12 1 9.17686 6.09512 0.187425 -0.38447 -0.156232 -0.0259565
35 2 10.0063 6.36822 5.643 1.13541 0.0764476 -0.127152
49 3 9.74073 6.62701 3.58666 0.152146 -0.0753574 -0.214141
22 1 9.97112 7.09211 8.93986 -0.348368 -0.103777 0.154958
40 3 8.63854 7.57646 6.69226 1.31133 0.511352 -0.0118993
47 3 7.88857 5.71072 10.0712 -0.0113989 1.67566 0.920487
30 1 9.22431 8.96307 0.238405 -0.128314 0.165862 0.045228
9 1 10.103 9.50202 7.29154 -0.307296 0.361219 -0.317835
ITEM: TIMESTEP
30
ITEM: NUMBER OF ATOMS
65
ITEM: BOX BOUNDS pp pp pp
0.0000000000000000e+00 1.0250000000000000e+01
0.0000000000000000e+00 1.0250000000000000e+01
0.0000000000000000e+00 1.2350000000000000e+01
ITEM: ATOMS id type x y z fx fy fz
3 1 2.17346 1.64641 0.326928 0.60259 0.0207357 0.326635
50 3 0.752544 2.25897 2.26816 0.829853 0.108706 0.608661
6 1 2.15235 0.570796 8.1768 -0.388928 -0.264796 -0.182268
41 3 0.289057 1.93735 7.24964 0.307755 0.485037 0.0333856
48 3 0.740868 2.53709 11.0849 0.174259 0.646535 0.194571
44 3 1.97429 3.87131 1.68207 -0.290629 0.133919 0.0113223
23 1 0.246379 3.76245 5.55418 -0.924849 -0.0952628 0.408289
60 3 2.41209 4.47091 5.09141 -0.219307 -0.319363 0.205146
13 1 0.119725 3.65434 9.12697 0.334083 0.399275 -0.204815
33 2 0.967937 4.41074 12.1838 -0.221967 -0.3239 -0.769803
4 1 1.67257 7.10121 2.4418 -0.588845 0.619172 0.0454526
65 4 0.797694 7.64615 0.324645 -0.0841951 0.0320387 -0.0313769
34 2 1.99068 7.28536 6.01755 -0.309998 -0.560841 0.237484
45 3 1.87021 5.74788 9.17005 -0.291047 -0.465659 0.752364
20 1 2.16304 7.55758 10.6497 -0.00473747 0.796831 0.197164
39 3 2.06625 9.34874 6.06241 0.105589 -0.00321478 0.0195125
63 4 0.999047 9.18451 9.33232 -0.307107 -0.697652 0.0867585
56 3 4.53727 1.85982 1.83183 0.385465 0.606001 0.192609
59 3 4.25422 0.0196893 0.95279 -0.093672 -0.670633 -0.0865336
5 1 2.88818 1.88814 4.08165 -0.0977315 0.529706 -0.493697
53 3 4.83758 1.97076 5.72776 -0.0995196 -1.25587 -0.0756689
36 3 3.78828 1.1146 9.91354 0.598406 -0.263152 0.838059
18 1 4.5393 4.18064 5.40411 1.50611 -0.28213 -0.24714
32 2 2.82219 4.91092 10.9304 0.437195 -1.77682 -0.075276
19 1 4.9596 6.64528 1.91953 -0.194572 0.311677 -0.510209
31 2 3.09516 6.23742 4.182 -0.671358 0.694034 -0.304753
14 1 3.11665 5.38211 7.30282 -0.0111432 0.310318 0.203821
43 3 4.01194 6.39972 11.7931 0.8164 -0.154721 -0.152418
37 3 3.91219 9.1439 2.75394 0.518036 0.0764981 -0.282278
11 1 4.51269 9.96828 6.51932 -0.386236 -0.0213249 0.190059
38 3 4.54155 9.42343 10.2173 0.269094 -0.0369623 -0.919333
8 1 5.27871 0.766927 3.83667 -0.1908 -0.239219 -0.0386433
25 1 7.24816 1.33129 5.53897 0.393905 0.218821 0.600955
15 1 6.04937 2.53881 12.2461 0.880835 -0.39889 0.199807
28 1 7.19382 0.475308 9.46898 -0.443259 -0.565162 0.29126
57 3 5.49356 2.39495 10.0234 -0.352278 -0.360204 -1.01161
21 1 7.0049 2.58818 2.72873 -0.00758645 0.291657 -0.260982
29 1 6.13521 2.85119 7.57729 0.175748 -0.462254 0.566329
61 4 5.40941 5.01546 7.49569 -0.838231 0.639489 -0.204567
7 1 7.64001 5.81241 2.71555 -0.156365 -0.0323186 0.0182627
54 3 7.16147 7.38884 1.09814 0.336834 -0.460455 9.49684e-05
42 3 5.23386 6.28803 4.14815 -0.353271 -0.211275 0.304105
2 1 7.45272 5.89026 7.55042 0.172673 -0.314772 0.222557
17 1 6.38481 5.47804 12.1898 0.333616 0.505092 0.16934
26 1 5.55031 6.53219 9.62305 0.274925 -0.298735 -0.0724942
27 1 6.43283 8.70082 2.94896 0.182745 -0.193878 -0.0514166
1 1 6.54826 9.21013 0.135216 -0.819592 0.328777 -0.481734
58 3 5.7836 8.73762 8.57642 -0.748181 0.481632 0.537018
24 1 9.3338 2.20398 0.519149 -0.207672 -0.639416 -0.103391
64 4 7.72265 0.365102 3.61462 -0.777716 -0.559112 -0.811416
52 3 8.59528 1.18846 7.44866 -0.360876 -0.0510867 0.533362
16 1 8.52613 2.11926 10.297 0.32157 0.0162731 -0.217648
51 3 8.05654 0.581747 11.9083 -0.616395 -0.288472 -0.192041
10 1 9.46592 3.92442 2.90189 0.419743 0.234985 -0.347697
46 3 7.85903 3.78803 0.909723 -0.599786 1.05133 0.22623
62 4 8.14896 3.36692 4.65332 0.137555 1.00507 -0.0290554
55 3 8.17546 4.00167 8.9746 -0.605904 -0.316569 -0.812328
12 1 9.16895 6.11137 0.211723 -0.425403 -0.142858 0.0729881
35 2 9.98531 6.37053 5.65356 1.09509 0.0120463 -0.341446
49 3 9.74406 6.60688 3.57918 0.383003 -0.0899097 0.0511092
22 1 9.94974 7.06372 8.91921 -0.202816 -0.0502107 0.210358
40 3 8.59553 7.59061 6.67848 1.54273 0.499676 -0.0432247
47 3 7.88759 5.70131 10.08 0.0563163 1.27441 0.904963
30 1 9.28818 8.99314 0.171362 -0.399984 0.220455 0.200689
9 1 10.0965 9.50336 7.31365 -0.300161 0.316919 -0.305457
ITEM: TIMESTEP
35
ITEM: NUMBER OF ATOMS
65
ITEM: BOX BOUNDS pp pp pp
0.0000000000000000e+00 1.0250000000000000e+01
0.0000000000000000e+00 1.0250000000000000e+01
0.0000000000000000e+00 1.2350000000000000e+01
ITEM: ATOMS id type x y z fx fy fz
3 1 2.18013 1.60434 0.35686 0.448168 0.0489949 0.182202
50 3 0.725949 2.27849 2.26349 0.967308 -0.101098 0.623762
6 1 2.14819 0.580286 8.16124 -0.346202 -0.338282 -0.134667
41 3 0.306003 1.92629 7.23569 -0.046119 0.718907 0.0731844
48 3 0.728271 2.56346 11.0702 0.27286 0.341057 0.347181
44 3 2.00555 3.84408 1.68082 -0.363787 0.286134 -0.0307224
23 1 0.184269 3.74251 5.57564 -0.736344 0.0214181 0.473713
60 3 2.38611 4.48128 5.0952 0.108045 -0.266861 0.305932
13 1 0.187872 3.66146 9.13239 -0.241611 0.513306 -0.362493
33 2 0.962396 4.3979 12.1877 -0.282978 -0.279777 -0.677033
4 1 1.6387 7.07863 2.39348 -0.361007 0.522378 0.557051
65 4 0.817517 7.61448 0.320135 -0.170681 0.169056 -0.198979
34 2 1.97942 7.26206 6.0179 -0.47135 0.0264617 0.23863
45 3 1.86442 5.7514 9.17126 -0.143987 -0.468214 0.619994
20 1 2.19266 7.58088 10.6581 -0.000777644 0.700567 0.0864729
39 3 2.07639 9.37088 6.09264 0.190741 -0.586836 -0.0838351
63 4 1.04118 9.16352 9.32318 -0.320164 -0.709373 -0.100268
56 3 4.50477 1.86328 1.85831 0.468154 0.321104 0.0487898
59 3 4.25948 -0.0117869 0.942903 -0.0871126 -0.289722 0.111723
5 1 2.82388 1.85564 4.07052 0.116628 0.495441 -0.440637
53 3 4.80219 1.98919 5.72831 0.163163 -1.26376 -0.0231272
36 3 3.80675 1.1157 9.91584 0.362273 -0.0476001 0.929906
18 1 4.61532 4.17014 5.41578 0.670665 -0.234592 -0.484412
32 2 2.80305 4.90231 10.9267 0.778146 -1.44876 0.0176634
19 1 4.94382 6.6441 1.91104 0.0501343 0.285699 -0.482094
31 2 3.11461 6.25304 4.18172 -0.741931 0.53748 -0.493106
14 1 3.1518 5.40636 7.2594 -0.183993 0.274659 0.464647
43 3 4.01231 6.42033 11.8093 0.740329 -0.432094 -0.359081
37 3 3.91519 9.15593 2.75963 0.53725 0.118416 -0.217464
11 1 4.50118 9.98333 6.54806 -0.294379 0.0232375 -0.0349893
38 3 4.56992 9.44145 10.1939 0.0777829 -0.0958219 -0.56478