ITEM: TIMESTEP
0
ITEM: NUMBER OF ATOMS
65
ITEM: BOX BOUNDS pp pp pp
0.0000000000000000e+00 1.0250000000000000e+01
0.0000000000000000e+00 1.0250000000000000e+01
0.0000000000000000e+00 1.2350000000000000e+01
ITEM: ATOMS id type x y z fx fy fz
3 1 2.5167 1.79302 0.46485 -0.126448 -0.0416507 -0.0906675
50 3 1.00737 2.18691 2.36333 0.296873 0.0439483 -0.0816581
6 1 1.9675 0.44788 8.16863 -0.0259693 -0.20963 0.188014
41 3 0.27674 2.04323 7.33525 0.037359 -0.0820663 0.1333
48 3 0.81966 2.51768 11.1843 0.0602602 0.346088 -0.325768
44 3 1.75768 4.02661 1.69576 -0.00783521 0.211201 -0.0128732
23 1 0.05007 3.83201 5.74074 -0.0614113 0.0443568 0.130224
60 3 2.51776 4.35743 5.08938 0.13393 -0.0107539 -0.0104555
13 1 0.35716 3.78242 9.03353 -0.11917 0.0968999 0.11277
33 2 0.97141 4.42769 12.022 -0.16485 -0.0828639 -0.314462
34 2 2.03673 7.24987 6.03468 0.12237 -0.594074 0.329617
45 3 1.84162 5.67236 9.32099 -0.0503449 0.0732822 0.102659
4 1 1.45284 7.74107 2.56988 0.0394992 -0.137442 0.15697
65 4 0.67654 7.81318 0.36192 -0.193223 -0.185752 0.0471766
39 3 2.02569 9.33233 5.86273 -0.11438 0.103582 -0.0462979
20 1 2.16301 7.80323 10.7332 -0.0417306 -0.0248939 -0.0431496
63 4 0.69725 9.23103 9.42311 0.00857881 -0.0127869 0.00989168
56 3 4.7678 1.96554 1.7125 0.330905 0.0343476 0.155493
59 3 4.20555 0.06549 1.0109 -0.0269352 -0.376945 0.397504
5 1 3.09319 2.24493 3.93741 -0.12905 0.0824177 0.0186747
53 3 5.00612 1.72604 5.71945 0.256234 0.242452 0.035575
36 3 3.80545 1.04788 9.97858 0.0198085 0.0922846 0.127788
18 1 4.98429 4.11339 5.33877 -0.350757 -0.167577 0.341838
32 2 2.92928 4.70325 10.9071 -0.0753645 -0.242571 0.0404635
19 1 4.73562 6.88289 1.72292 -0.0448547 -0.1692 -0.0235748
31 2 2.90525 6.24531 4.15844 -0.135886 0.0239835 -0.382121
42 3 5.03322 6.3221 4.16781 0.157274 0.0967739 -0.225978
14 1 3.06277 5.36374 7.32572 -0.201018 -0.348629 -0.139201
43 3 4.09908 6.29537 11.6997 0.0199474 -0.047281 -0.115227
37 3 3.95713 9.07225 2.66721 0.0417395 -0.067112 0.225003
11 1 4.34825 9.85664 6.544 0.0569247 0.240386 0.119654
38 3 4.42858 9.30806 10.2087 -0.0684932 -0.0770121 -0.113357
21 1 7.25581 2.39651 2.68508 -0.0206241 0.109909 0.0268142
8 1 5.31092 0.59986 3.7148 0.0456807 0.136751 0.0440455
25 1 7.42213 1.44341 5.49379 0.066259 0.124705 0.290285
64 4 7.59796 0.14994 3.50658 -0.112768 0.0451333 0.0251409
15 1 6.55437 2.23571 12.1689 -0.244253 0.0873678 -0.111579
28 1 7.06255 0.12552 9.55086 -0.0593522 0.325226 -0.113688
57 3 5.49571 2.21062 9.87884 0.0710363 0.233867 -0.0091654
29 1 6.18745 2.81943 7.70693 0.0474908 -0.174423 -0.337904
7 1 7.52918 5.67914 2.66666 0.112286 0.278034 -0.0121042
54 3 7.0355 7.39837 1.0776 -0.0220537 0.123067 0.108559
2 1 7.612 5.77518 7.56331 -0.0291464 -0.162029 -0.24813
61 4 5.3398 5.13337 7.53466 0.236448 -0.0868261 0.183956
17 1 6.47464 5.45145 12.1469 0.0460778 0.0654196 0.15314
26 1 5.52084 6.47203 9.54968 -0.0312776 0.138719 0.0588419
27 1 6.43605 8.35398 3.14836 0.100966 0.105883 -0.419307
58 3 5.51011 8.76842 8.51708 0.127137 -0.0686597 -0.116517
1 1 6.20008 9.28208 12.2497 0.309416 -0.233378 -0.0557531
24 1 9.37726 1.99226 0.54063 0.0405897 -0.0719416 -0.0946682
52 3 8.54837 1.28691 7.63965 -0.097106 0.0230682 0.234252
16 1 8.93398 1.9007 10.0977 -0.213587 0.0411155 -0.301142
51 3 8.01733 0.41612 11.7167 -0.191391 0.338524 0.112028
10 1 9.75541 4.23566 2.7458 0.0548556 0.0333064 0.110814
46 3 7.96365 3.91683 1.04638 -0.0146866 0.124209 -0.0111112
62 4 8.13165 3.59947 4.63345 0.138054 -0.154954 -0.11874
55 3 8.21813 4.09472 9.12869 0.166906 -0.129196 0.0218943
12 1 9.05656 5.93554 0.03356 -0.109695 -0.0412733 -0.0127537
35 2 10.2202 6.35704 5.59758 0.0572158 -0.131255 -0.0758838
49 3 9.71962 6.71937 3.57411 0.101556 -0.227771 -0.162993
22 1 9.83644 7.15366 9.07201 0.0749874 -0.0943073 -0.0967201
40 3 8.94778 7.55354 6.76612 -0.0786928 0.109963 -0.0567914
47 3 7.89074 5.94724 10.1299 -0.113031 0.176696 0.257471
30 1 8.85473 8.89441 0.61968 -0.0103694 -0.128939 -0.178994
9 1 10.0346 9.65529 7.08184 -0.0929054 0.230229 0.158881
ITEM: TIMESTEP
5
ITEM: NUMBER OF ATOMS
65
ITEM: BOX BOUNDS pp pp pp
0.0000000000000000e+00 1.0250000000000000e+01
0.0000000000000000e+00 1.0250000000000000e+01
0.0000000000000000e+00 1.2350000000000000e+01
ITEM: ATOMS id type x y z fx fy fz
3 1 2.43754 1.79395 0.407265 0.172762 -0.173718 0.238524
50 3 0.957492 2.19238 2.34228 0.24725 0.154764 0.0337881
6 1 2.00594 0.473005 8.17538 -0.0388957 -0.115475 0.0220898
41 3 0.268894 2.02344 7.32053 0.379977 -0.0019169 -0.0144187
48 3 0.807257 2.50411 11.1662 0.0289869 0.67188 -0.0848412
44 3 1.79535 4.00341 1.69331 -0.117748 0.031351 0.152303
23 1 0.126787 3.81954 5.68113 -0.300163 0.00654859 0.241251
60 3 2.50519 4.3817 5.08949 -0.0371765 -0.187654 0.00565383
13 1 0.244826 3.75517 9.04925 0.483389 0.000159202 0.0449953
33 2 0.973694 4.43088 12.0644 -0.19447 -0.356568 -0.642189
34 2 2.02845 7.28144 6.03093 0.200722 -1.10813 -0.0314117
45 3 1.85414 5.68951 9.27683 -0.243937 -0.0958036 0.65004
4 1 1.5111 7.58396 2.55965 -0.020348 0.116836 0.17959
65 4 0.696911 7.78978 0.35382 -0.0612642 -0.297091 0.00931465
39 3 2.02943 9.31528 5.90132 0.0530572 0.812473 -0.282324
20 1 2.12955 7.74091 10.7134 0.411658 0.111168 -0.0264001
63 4 0.75472 9.22827 9.40274 -0.349597 -0.0148247 0.228345
56 3 4.72656 1.93238 1.7269 0.163678 0.394346 0.200083
59 3 4.21499 0.075115 0.998143 -0.0217189 -0.760923 0.329369
5 1 3.07717 2.19144 3.96912 -0.292355 -0.076442 -0.00361659
53 3 4.98243 1.77163 5.72043 -0.0916718 0.0907936 0.0764324
36 3 3.78984 1.06493 9.96387 0.291141 -0.0961156 0.172877
18 1 4.86374 4.13115 5.336 -0.0208911 -0.154543 0.297258
32 2 2.91762 4.75932 10.9176 -0.166201 -0.739206 -0.14431
19 1 4.81013 6.82097 1.76852 -0.323124 0.112473 -0.030409
31 2 2.9416 6.23496 4.16566 -0.24506 0.338111 -0.315033
42 3 5.06822 6.318 4.16043 0.0178424 0.0395724 -0.0616795
14 1 3.04321 5.36473 7.37208 0.255342 -0.182074 -0.446352
43 3 4.08005 6.30738 11.714 0.117296 0.240456 -0.0234278
37 3 3.94501 9.08514 2.68828 0.148195 0.0126331 0.0182262
11 1 4.38847 9.87622 6.51529 -0.019458 0.182118 0.325702
38 3 4.44097 9.3284 10.2228 0.203246 -0.0189305 -0.350748
21 1 7.20458 2.42655 2.69707 0.00684695 0.0274446 0.0158058
8 1 5.26494 0.67463 3.71622 0.343619 -0.23711 -0.000906117
25 1 7.40062 1.41724 5.52591 -0.0262445 -0.0503283 -0.0516994
64 4 7.62645 0.191168 3.53023 -0.400697 -0.0737562 -0.0330706
15 1 6.4414 2.29835 12.1752 -0.0395198 -0.169196 -0.123925
28 1 7.14984 0.230904 9.54777 -0.466323 -0.0472941 -0.150721
57 3 5.49836 2.23777 9.91349 -0.0170603 0.216343 -0.271053
29 1 6.17358 2.83949 7.64526 0.0244681 -0.174667 0.0698495
7 1 7.52223 5.70777 2.66196 0.27474 0.0510535 0.0454467
54 3 7.04288 7.40518 1.08034 0.510895 -0.132564 -0.0245708
2 1 7.55345 5.81033 7.56025 0.162566 -0.0755034 -0.105802
61 4 5.36031 5.11061 7.53145 -0.261068 -0.146232 -0.0811589
17 1 6.43607 5.50057 12.1844 0.117908 -0.31306 -0.0730486
26 1 5.54767 6.47378 9.56029 -0.113801 0.202734 -0.00259956
27 1 6.4151 8.37195 3.10965 0.226085 0.443787 -0.109867
58 3 5.56281 8.75403 8.51701 0.00323665 0.368567 0.302284
1 1 6.32992 9.21691 12.3296 -0.460266 0.338888 -0.388068
24 1 9.33496 2.0591 0.522554 0.273532 -0.126715 0.0677804
52 3 8.56312 1.27139 7.59529 -0.347015 -0.120151 0.46699
16 1 8.83201 1.90593 10.1728 0.306279 0.202316 -0.482798
51 3 8.0323 0.449387 11.7454 -0.472069 0.0226525 0.104656
10 1 9.68273 4.18219 2.78161 0.276528 -0.0990511 0.0370628
46 3 7.95412 3.87337 1.01474 -0.226507 0.690251 0.246158
62 4 8.13249 3.55717 4.64024 0.16306 0.129718 -0.155369
55 3 8.2222 4.09504 9.11626 -0.199798 -0.627565 -0.397409
12 1 9.09538 5.98017 0.0698497 -0.251344 -0.183191 -0.0177728
35 2 10.1676 6.3612 5.60478 0.412621 -0.204307 0.0573803
49 3 9.72658 6.70297 3.5848 -0.0336289 -0.132341 -0.429413
22 1 9.89566 7.15407 9.04701 -0.254255 -0.119334 -0.106356
40 3 8.88067 7.5536 6.75032 0.0278753 0.129119 0.113043
47 3 7.89061 5.87847 10.106 -0.0626749 0.959457 0.879851
30 1 8.93727 8.90636 0.54018 -0.0161554 -0.0356602 -0.238227
9 1 10.0526 9.60613 7.12803 -0.112299 0.34943 0.0688441
ITEM: TIMESTEP
10
ITEM: NUMBER OF ATOMS
65
ITEM: BOX BOUNDS pp pp pp
0.0000000000000000e+00 1.0250000000000000e+01
0.0000000000000000e+00 1.0250000000000000e+01
0.0000000000000000e+00 1.2350000000000000e+01
ITEM: ATOMS id type x y z fx fy fz
3 1 2.36424 1.78915 0.357918 0.406987 -0.166585 0.522759
50 3 0.909468 2.19899 2.32147 0.191187 0.247391 0.122928
6 1 2.04299 0.494214 8.18287 -0.0673496 0.0176311 -0.145925
41 3 0.263828 2.00363 7.30577 0.606031 0.0576662 -0.0704208
48 3 0.795057 2.49555 11.1475 -0.0236731 0.93807 0.0907813
44 3 1.83219 3.98036 1.6919 -0.124687 -0.196255 0.165977
23 1 0.192978 3.80689 5.62987 -0.534882 -0.121248 0.295857
60 3 2.49227 4.40465 5.08963 -0.296795 -0.218974 -0.00620081
13 1 0.148834 3.72848 9.06651 0.960918 0.0458526 -0.0517483
33 2 0.974494 4.43136 12.1018 -0.179778 -0.548717 -0.868779
4 1 1.56814 7.43182 2.55497 -0.257871 0.589909 -0.0913243
34 2 2.02167 7.30451 6.02696 0.178046 -1.40451 -0.340365
45 3 1.86486 5.70596 9.23746 -0.376673 -0.221069 1.04722
20 1 2.10976 7.68199 10.693 0.642603 0.0998878 0.102618
65 4 0.716858 7.76436 0.345814 0.0528723 -0.386946 0.0268669
39 3 2.03354 9.3042 5.93789 0.171757 1.28995 -0.32205
63 4 0.809896 9.22529 9.38389 -0.585722 -0.199197 0.357816
56 3 4.68663 1.90215 1.74277 0.0955482 0.71568 0.212294
59 3 4.22422 0.0790931 0.987843 -0.082212 -1.01277 0.231253
5 1 3.0509 2.13553 4.00057 -0.485421 -0.151082 -0.0859213
53 3 4.95812 1.81785 5.72195 -0.325205 -0.15456 0.0695266
36 3 3.77656 1.08126 9.95044 0.662916 -0.302131 0.228294
18 1 4.74367 4.14317 5.3436 0.633792 -0.223336 0.27006
32 2 2.9047 4.80973 10.9271 -0.214365 -1.09992 -0.288965
19 1 4.87352 6.76288 1.81291 -0.558219 0.366462 -0.091942
31 2 2.97611 6.22717 4.17047 -0.261323 0.538981 -0.17831
42 3 5.10335 6.3142 4.15256 -0.160818 -0.0011027 0.0655165
14 1 3.03189 5.35927 7.40343 0.503535 -0.057877 -0.590114
43 3 4.06191 6.32112 11.728 0.216047 0.376337 0.061182
37 3 3.93399 9.09802 2.7095 0.250838 -0.0906181 -0.136985
11 1 4.42774 9.90204 6.49758 -0.153658 0.0783733 0.376959
38 3 4.45484 9.34858 10.2342 0.358908 0.0234164 -0.657082
21 1 7.15352 2.45774 2.70963 0.0143776 0.0146488 0.00720348
8 1 5.23047 0.741602 3.71801 0.493417 -0.470342 0.0862369
25 1 7.37834 1.39025 5.556 -0.0885829 0.0330513 -0.451331
64 4 7.6524 0.231926 3.55339 -0.419251 -0.11636 -0.472011
15 1 6.32748 2.35567 12.1777 0.34422 -0.233485 0.0697116
28 1 7.2205 0.33432 9.53969 -0.959031 -0.489124 -0.0937901
57 3 5.50088 2.26654 9.9461 -0.131719 0.169002 -0.50986
29 1 6.16082 2.85323 7.58607 0.115059 -0.227405 0.466072
61 4 5.3791 5.08691 7.52777 -0.674752 -0.108743 -0.206716
7 1 7.52477 5.73826 2.65899 0.416741 -0.14527 0.152847
54 3 7.05401 7.41095 1.08299 0.915131 -0.467667 -0.0134319
2 1 7.50072 5.84202 7.55331 0.428809 -0.266597 -0.0446794
17 1 6.40162 5.5391 12.2191 0.19434 -0.603896 -0.407477
26 1 5.57067 6.48239 9.57087 -0.151683 0.20256 -0.0462556
27 1 6.40181 8.40491 3.06732 0.295039 0.640437 0.245156
1 1 6.44399 9.1631 0.0461805 -1.0872 0.778037 -0.674736
58 3 5.61537 8.74244 8.5193 -0.369058 0.800812 0.818563
24 1 9.30208 2.12129 0.506639 0.479968 -0.262063 0.166374
52 3 8.57529 1.255 7.55437 -0.522341 -0.207141 0.574417
16 1 8.73998 1.91849 10.2311 0.613043 0.40344 -0.649574
51 3 8.04374 0.482813 11.7749 -0.681368 -0.312986 0.00815011
10 1 9.61927 4.12542 2.81858 0.360833 -0.178057 -0.0844742
46 3 7.94279 3.83515 0.984984 -0.567105 1.32474 0.553766
62 4 8.13439 3.51554 4.64594 0.166096 0.0915025 -0.267352
55 3 8.22476 4.09097 9.10092 -0.639242 -0.631726 -0.594492
12 1 9.12575 6.01855 0.105542 -0.302499 -0.290765 -0.0129029
35 2 10.1182 6.36386 5.61244 0.729354 -0.122904 0.22598
49 3 9.73332 6.68552 3.59234 -0.113662 -0.125367 -0.551456
22 1 9.94628 7.15046 9.01851 -0.501437 -0.0907415 -0.0528174
40 3 8.81393 7.55461 6.7353 0.39996 0.114184 0.181619
47 3 7.89005 5.81669 10.0885 0.0185258 1.41292 1.16049
30 1 9.01954 8.91779 0.453842 0.0652003 0.245718 0.13642
9 1 10.0669 9.5686 7.17658 -0.0845162 0.290861 -0.041417
ITEM: TIMESTEP
15
ITEM: NUMBER OF ATOMS
65
ITEM: BOX BOUNDS pp pp pp
0.0000000000000000e+00 1.0250000000000000e+01
0.0000000000000000e+00 1.0250000000000000e+01
0.0000000000000000e+00 1.2350000000000000e+01
ITEM: ATOMS id type x y z fx fy fz
3 1 2.30485 1.77872 0.32633 0.569803 -0.0986465 0.670334
50 3 0.862862 2.20743 2.30157 0.138564 0.282567 0.198183
6 1 2.0776 0.515906 8.18539 -0.134418 0.0935391 -0.270429
41 3 0.263235 1.98424 7.29051 0.689077 0.116954 -0.0698635
48 3 0.782675 2.49396 11.1293 -0.0709352 1.05096 0.187212
44 3 1.86813 3.95609 1.69176 -0.121496 -0.0982998 0.169375
23 1 0.240819 3.79047 5.58895 -0.669616 -0.141413 0.35238
60 3 2.47716 4.426 5.08973 -0.464409 -0.181235 0.0181081
13 1 0.0857439 3.70337 9.08185 1.24804 0.120635 -0.182462
33 2 0.973839 4.42758 12.1325 -0.216335 -0.668608 -1.00899
4 1 1.61612 7.29915 2.54644 -0.546922 0.823255 -0.539326
34 2 2.01626 7.31681 6.02048 0.0941421 -1.44594 -0.42956
45 3 1.87278 5.72078 9.20579 -0.453042 -0.302713 1.16739
20 1 2.11171 7.62672 10.6763 0.659976 0.164173 0.249104
65 4 0.737121 7.73633 0.337998 0.0806264 -0.430058 0.0608298
39 3 2.03888 9.30253 5.97216 0.137043 1.27865 -0.179067
63 4 0.86132 9.22083 9.3672 -0.54125 -0.606061 0.178234
56 3 4.64744 1.87722 1.76023 0.125904 0.896086 0.17618
59 3 4.23281 0.0755934 0.97922 -0.189465 -1.04182 0.0458195
5 1 3.00813 2.07488 4.02886 -0.55655 -0.0319089 -0.230231
53 3 4.93141 1.86287 5.72398 -0.440755 -0.475772 0.0307325
36 3 3.7682 1.09535 9.93869 0.977309 -0.481072 0.215792
18 1 4.64407 4.14787 5.36069 1.00634 -0.204604 0.248662
32 2 2.89017 4.85165 10.9343 -0.162933 -1.36405 -0.321403
19 1 4.91789 6.71711 1.85404 -0.668193 0.486355 -0.184397
31 2 3.00865 6.22351 4.17394 -0.219779 0.636704 0.0201563
42 3 5.13726 6.31042 4.14518 -0.348492 -0.0172056 0.191874
14 1 3.0374 5.35163 7.4146 0.51091 0.0148751 -0.610839
43 3 4.04544 6.33764 11.7425 0.397917 0.427747 0.098291
37 3 3.92485 9.11023 2.72974 0.352215 -0.191456 -0.218089
11 1 4.4619 9.93072 6.49281 -0.226312 0.0200515 0.377548
38 3 4.47137 9.36891 10.2407 0.456693 0.00697095 -0.921935
21 1 7.10301 2.48962 2.72242 0.0384782 0.0576681 -0.016194
8 1 5.21268 0.792521 3.72289 0.480674 -0.600057 0.208573
25 1 7.3528 1.36406 5.57117 -0.20537 0.0365461 -0.596825
64 4 7.67542 0.271773 3.5734 -0.534891 -0.286485 -0.816394
15 1 6.22549 2.40524 12.1828 0.728044 -0.138743 0.300042
28 1 7.25862 0.421718 9.52835 -1.23332 -0.678163 -0.0245286
57 3 5.50243 2.2966 9.97493 -0.244625 0.150064 -0.662352
29 1 6.15208 2.85893 7.54271 0.221648 -0.342997 0.74192
61 4 5.39339 5.06251 7.52275 -0.933065 0.0182124 -0.21135
7 1 7.54164 5.76397 2.6613 0.495094 -0.251105 0.240725
54 3 7.07187 7.41326 1.08556 1.04694 -0.72083 0.0286388
2 1 7.46243 5.86503 7.5451 0.524166 -0.285126 0.109871
17 1 6.37387 5.55733 12.2399 0.259061 -0.663755 -0.631114
26 1 5.58869 6.49779 9.57988 -0.0864514 0.116521 -0.0785369
27 1 6.39901 8.45961 3.033 0.42276 0.647106 0.446272
1 1 6.52125 9.13528 0.0898973 -1.39089 0.829263 -0.761418
58 3 5.66535 8.73663 8.52756 -0.495909 0.877933 1.04672
24 1 9.28549 2.17451 0.496272 0.549464 -0.367528 0.181965
52 3 8.58359 1.23707 7.51772 -0.576586 -0.249059 0.61536
16 1 8.6685 1.94416 10.267 0.624357 0.385655 -0.76479
51 3 8.05013 0.514127 11.8045 -0.787516 -0.303349 -0.0144963
10 1 9.56816 4.06266 2.85275 0.385399 -0.178442 -0.178759
46 3 7.92721 3.8067 0.959303 -0.877327 1.65807 0.716052
62 4 8.13768 3.47466 4.64984 0.40725 0.192164 -0.337717
55 3 8.22254 4.08221 9.08119 -1.00301 -0.455142 -0.670271
12 1 9.1456 6.0469 0.140772 -0.348455 -0.377347 -0.022067
35 2 10.0744 6.36562 5.62186 0.969687 0.0305587 0.335999
49 3 9.73923 6.66712 3.59577 -0.131222 -0.116213 -0.625096
22 1 9.97989 7.14371 8.98814 -0.608433 -0.0502828 0.0324495
40 3 8.75005 7.55652 6.7217 0.695966 0.185217 0.305893
47 3 7.88958 5.76552 10.0796 0.0647539 1.74295 1.24228
30 1 9.10403 8.93686 0.372646 0.190312 0.276574 0.540825
9 1 10.0782 9.54115 7.22365 -0.0606455 0.221454 -0.171291
ITEM: TIMESTEP
20
ITEM: NUMBER OF ATOMS
65
ITEM: BOX BOUNDS pp pp pp
0.0000000000000000e+00 1.0250000000000000e+01
0.0000000000000000e+00 1.0250000000000000e+01
0.0000000000000000e+00 1.2350000000000000e+01
ITEM: ATOMS id type x y z fx fy fz
3 1 2.26569 1.76509 0.317451 0.787653 0.0407824 0.634042
50 3 0.817287 2.21798 2.28314 0.164405 0.256178 0.283331
6 1 2.10736 0.540413 8.17894 -0.261298 0.0334627 -0.272472
41 3 0.267765 1.96573 7.2747 0.65608 0.218831 -0.0732337
48 3 0.769791 2.50017 11.1125 -0.0428471 0.986406 0.236934
44 3 1.90318 3.93107 1.69286 -0.150059 0.0389993 0.128812
23 1 0.265521 3.76918 5.55998 -0.789992 -0.142049 0.367784
60 3 2.45867 4.44604 5.09 -0.486963 -0.0826101 0.0582511
13 1 0.0652534 3.68234 9.09125 1.27474 0.165853 -0.219148
33 2 0.971492 4.41865 12.1555 -0.265147 -0.714584 -1.02116
4 1 1.6456 7.19439 2.52038 -0.691885 0.857963 -0.666213
34 2 2.01157 7.31801 6.01077 -0.00330857 -1.23769 -0.300894
45 3 1.87733 5.73335 9.18273 -0.483724 -0.369919 1.06646
20 1 2.13606 7.57761 10.6679 0.485797 0.389588 0.307896
65 4 0.758024 7.70524 0.33048 0.156772 -0.550858 -0.0341413
39 3 2.04513 9.31014 6.00518 -0.0964231 0.725388 0.110708
63 4 0.909122 9.21233 9.35165 -0.498673 -0.841076 -0.103219
56 3 4.60917 1.85894 1.77903 0.183735 0.963386 0.143661
59 3 4.24001 0.0642986 0.970956 -0.242169 -0.987242 -0.0897852
5 1 2.94633 2.01344 4.04886 -0.492386 0.203545 -0.473633
53 3 4.90144 1.9044 5.72622 -0.4337 -0.748275 -0.0183387
36 3 3.76703 1.10592 9.9286 1.04496 -0.550479 0.268443
18 1 4.57952 4.14555 5.38609 1.37941 -0.141308 0.105217
32 2 2.87427 4.88317 10.9393 -0.143494 -1.45285 -0.169987
19 1 4.93963 6.68793 1.8887 -0.584013 0.507964 -0.314941
31 2 3.03951 6.22481 4.17747 -0.195883 0.731881 0.0887108
14 1 3.06034 5.34444 7.4049 0.388544 0.0723525 -0.513187
43 3 4.03196 6.35734 11.7577 0.594462 0.372491 0.0990561
37 3 3.91833 9.12109 2.74842 0.409506 -0.175254 -0.206945
11 1 4.48826 9.96022 6.50114 -0.273776 0.00112349 0.357859
38 3 4.49135 9.38931 10.2404 0.51338 -0.0148906 -1.06099
21 1 7.05376 2.52366 2.73456 0.0531841 0.146103 -0.070286
8 1 5.21116 0.822842 3.73476 0.315471 -0.651391 0.235357
25 1 7.32053 1.33882 5.56659 -0.171691 -0.0540899 -0.392471
15 1 6.14762 2.44989 12.198 0.845754 -0.0619327 0.390863
28 1 7.25481 0.486062 9.51618 -1.18483 -0.701432 0.0646302
57 3 5.50216 2.32783 9.99885 -0.309354 0.136263 -0.743691
29 1 6.15081 2.85268 7.52459 0.255776 -0.47142 0.846481
61 4 5.40143 5.03821 7.5163 -1.02873 0.1509 -0.190428
7 1 7.57536 5.78126 2.67165 0.435107 -0.258205 0.213468
54 3 7.09748 7.41019 1.08833 0.922095 -0.890981 0.0359773
42 3 5.16862 6.30649 4.13925 -0.500075 -0.0507397 0.342061
2 1 7.44201 5.8782 7.54057 0.516656 -0.289143 0.218047
17 1 6.355 5.55302 12.2397 0.28998 -0.534146 -0.58181
26 1 5.60396 6.5172 9.58619 0.0579645 0.00440677 -0.1068
27 1 6.41071 8.53663 3.01345 0.478266 0.56832 0.381414
1 1 6.55126 9.13576 0.107342 -1.32892 0.665265 -0.77888
58 3 5.71177 8.73732 8.54355 -0.467847 0.815763 1.04011
24 1 9.28742 2.21513 0.491924 0.420923 -0.430917 0.094247
64 4 7.69475 0.309828 3.58815 -0.776905 -0.262866 -0.694108
52 3 8.58761 1.21726 7.48565 -0.559476 -0.281262 0.608992
16 1 8.61843 1.98274 10.2773 0.556101 0.173712 -0.609684
51 3 8.05066 0.543303 11.834 -0.798667 -0.115585 -0.0154003
10 1 9.53034 3.99388 2.88078 0.384341 -0.0844789 -0.251885
46 3 7.90512 3.79045 0.938761 -1.02017 1.60581 0.548986
62 4 8.14357 3.43509 4.6515 0.362764 0.372779 -0.305978
55 3 8.21292 4.07001 9.05638 -1.13078 -0.285823 -0.716977
12 1 9.15351 6.06236 0.175479 -0.346944 -0.402053 0.0203681
35 2 10.038 6.36761 5.6338 1.0832 0.181664 0.286947
49 3 9.74429 6.64776 3.59462 0.0636229 -0.206003 -0.509732
22 1 9.99275 7.1352 8.95908 -0.585455 -0.00628748 0.192893
40 3 8.69136 7.55988 6.71036 1.03934 0.362812 0.393204
47 3 7.88959 5.72733 10.0801 0.102844 1.90126 1.31741
30 1 9.1949 8.96525 0.308113 0.219688 0.168232 0.298763
9 1 10.0872 9.52161 7.26487 -0.0969548 0.228351 -0.280971
ITEM: TIMESTEP
25
ITEM: NUMBER OF ATOMS
65
ITEM: BOX BOUNDS pp pp pp
0.0000000000000000e+00 1.0250000000000000e+01
0.0000000000000000e+00 1.0250000000000000e+01
0.0000000000000000e+00 1.2350000000000000e+01
ITEM: ATOMS id type x y z fx fy fz
3 1 2.25355 1.75294 0.33028 0.906364 0.208577 0.471911
50 3 0.772932 2.23043 2.26681 0.331605 0.148208 0.353957
6 1 2.1281 0.566012 8.16316 -0.392756 -0.0723316 -0.215614
41 3 0.277156 1.94888 7.2583 0.477718 0.404284 -0.0651644
48 3 0.756626 2.51373 11.0975 0.0985653 0.769607 0.277446
44 3 1.93715 3.90631 1.69491 -0.196631 0.196536 0.0659963
23 1 0.262912 3.74289 5.54397 -0.862682 -0.152466 0.458254
60 3 2.43648 4.46552 5.09066 -0.481665 0.0668874 0.0381911
13 1 0.088324 3.66702 9.09311 1.03573 0.206956 -0.234593
33 2 0.967084 4.40413 12.1706 -0.29267 -0.724815 -0.978428
4 1 1.65136 7.11884 2.47261 -0.677014 0.7246 -0.317834
34 2 2.00686 7.30969 5.99876 -0.079107 -0.834099 -0.0403618
45 3 1.87828 5.74317 9.16759 -0.451678 -0.422728 0.86525
20 1 2.17707 7.54204 10.67 0.213526 0.637468 0.291414
65 4 0.780046 7.67037 0.322676 0.236326 -0.60532 -0.199174
39 3 2.05073 9.32315 6.03909 -0.202452 0.0368476 0.277813
63 4 0.953746 9.19815 9.33521 -0.338311 -0.900853 -0.529219
56 3 4.57219 1.84782 1.79897 0.243894 0.942163 0.125494
59 3 4.24541 0.0455843 0.962055 -0.257372 -0.878485 -0.10688
5 1 2.86758 1.95849 4.05252 -0.323746 0.310642 -0.673829
53 3 4.86821 1.94046 5.72836 -0.296593 -0.904584 -0.0359324
36 3 3.77359 1.11246 9.92056 0.898923 -0.447743 0.416382
18 1 4.56188 4.13826 5.41502 1.43786 -0.0941005 -0.112184
32 2 2.85729 4.90344 10.9429 -0.0223444 -1.50717 0.0152273
19 1 4.94156 6.67625 1.91243 -0.335839 0.488117 -0.458822
31 2 3.06884 6.2318 4.1816 -0.291148 0.791494 0.00428577
14 1 3.09661 5.33978 7.37766 0.168554 0.1377 -0.289219
43 3 4.02299 6.37981 11.7736 0.843946 0.197372 -0.0499662
37 3 3.91483 9.13073 2.76563 0.405802 -0.0470741 -0.128231
11 1 4.50504 9.98986 6.52183 -0.358618 -0.0073994 0.296331
38 3 4.51518 9.40965 10.2322 0.485076 -0.0404744 -1.04743
21 1 7.00607 2.56293 2.74426 0.00926815 0.259694 -0.130945
8 1 5.22027 0.830895 3.75449 0.0297263 -0.587488 0.138799
25 1 7.28248 1.31177 5.54893 -0.0320309 -0.10225 0.0127935
15 1 6.09857 2.49184 12.2262 0.800126 -0.19574 0.274714
28 1 7.21044 0.526402 9.50636 -0.884021 -0.63966 0.175903
57 3 5.49959 2.36016 10.0173 -0.329067 0.106831 -0.765725
29 1 6.15804 2.8301 7.53563 0.147854 -0.569898 0.854058
61 4 5.40257 5.01485 7.50852 -0.96766 0.236546 -0.194985
7 1 7.62378 5.7898 2.68905 0.197514 -0.195476 0.0491533
54 3 7.12995 7.40046 1.09133 0.556734 -0.965668 -0.0180751
42 3 5.19627 6.30217 4.13586 -0.65769 -0.0923494 0.448378
2 1 7.43925 5.88134 7.54331 0.425905 -0.310508 0.212831
17 1 6.3461 5.53061 12.2198 0.29117 -0.225119 -0.296974
26 1 5.62127 6.53694 9.58891 0.190741 -0.0771903 -0.109287
27 1 6.43878 8.63318 3.00681 0.405997 0.361465 0.177073
1 1 6.5359 9.15911 0.0976184 -0.968306 0.409775 -0.815244
58 3 5.75479 8.74414 8.56734 -0.404806 0.748506 0.906262
24 1 9.30357 2.2408 0.490649 0.142613 -0.500975 -0.0603504
64 4 7.70892 0.346177 3.5982 -0.858555 -0.246663 -0.610139
52 3 8.58746 1.19526 7.45803 -0.482719 -0.367456 0.523293
16 1 8.58742 2.02754 10.2666 0.465576 -0.069033 -0.332767
51 3 8.04519 0.571626 11.8635 -0.786026 0.00322692 -0.0624454
10 1 9.50575 3.92222 2.90029 0.364831 0.0838127 -0.266793
46 3 7.87537 3.78619 0.922284 -1.02329 1.43345 0.329526
62 4 8.15199 3.39796 4.6511 0.367562 0.542897 -0.233247
55 3 8.19491 4.05558 9.02614 -0.992786 -0.184532 -0.72006
12 1 9.14955 6.06408 0.211052 -0.306951 -0.329811 0.0849438
35 2 10.0099 6.37099 5.64793 1.11462 0.276883 0.106806
49 3 9.74991 6.62678 3.58971 0.409003 -0.360347 -0.245016
22 1 9.98547 7.12644 8.93677 -0.490241 0.0294955 0.385402
40 3 8.6404 7.56599 6.70187 1.4166 0.549635 0.342845
47 3 7.89038 5.70324 10.0905 0.146201 1.86167 1.47529
30 1 9.29279 8.99998 0.254278 -0.0670235 0.2197 0.211953
9 1 10.0928 9.51006 7.29661 -0.154138 0.268765 -0.323034
ITEM: TIMESTEP
30
ITEM: NUMBER OF ATOMS
65
ITEM: BOX BOUNDS pp pp pp
0.0000000000000000e+00 1.0250000000000000e+01
0.0000000000000000e+00 1.0250000000000000e+01
0.0000000000000000e+00 1.2350000000000000e+01
ITEM: ATOMS id type x y z fx fy fz
3 1 2.27254 1.74786 0.359219 0.893891 0.328669 0.176494
50 3 0.73098 2.244 2.25305 0.589718 -0.0399639 0.373908
6 1 2.13536 0.589216 8.13989 -0.480506 -0.165145 -0.124699
41 3 0.290137 1.93506 7.24137 0.223112 0.644752 -0.0396035
48 3 0.74419 2.53309 11.0845 0.293627 0.469283 0.303367
44 3 1.96976 3.88292 1.69747 -0.240602 0.320849 0.0179247
23 1 0.231073 3.71149 5.54422 -0.670132 -0.0708413 0.673312
60 3 2.41067 4.48555 5.09165 -0.356049 0.178476 0.0539985
13 1 0.147017 3.65892 9.08664 0.609257 0.266387 -0.308111
33 2 0.960408 4.38398 12.1781 -0.271323 -0.622293 -0.857239
4 1 1.63385 7.06812 2.41412 -0.50669 0.535434 0.255791
65 4 0.803721 7.63131 0.313465 0.249527 -0.532407 -0.403765
34 2 2.00152 7.29483 5.98635 -0.127066 -0.411691 0.1643
45 3 1.87587 5.74987 9.15894 -0.353218 -0.430237 0.685922
20 1 2.22595 7.52819 10.6819 0.0278507 0.773779 0.16167
39 3 2.05492 9.33652 6.07507 -0.142377 -0.595002 0.16823
63 4 0.99621 9.17777 9.31515 -0.190742 -0.976867 -0.826642
56 3 4.53693 1.84371 1.81992 0.318366 0.826995 0.0919339
59 3 4.24888 0.0202251 0.952385 -0.282266 -0.695911 -0.00961168
5 1 2.77723 1.9142 4.03362 -0.141459 0.381748 -0.58839
53 3 4.83268 1.96989 5.73024 -0.0705863 -0.953752 -0.0403001
36 3 3.78703 1.11572 9.91564 0.771638 -0.228832 0.58117
18 1 4.59287 4.12777 5.43995 1.00584 0.00063981 -0.387969
32 2 2.84022 4.91208 10.9465 0.36472 -1.44362 0.0318621
19 1 4.9319 6.68148 1.92042 -0.0521047 0.448548 -0.551165
31 2 3.09594 6.24493 4.18573 -0.472026 0.755212 -0.166094
14 1 3.1384 5.33984 7.34049 -0.211992 0.178467 0.0201335
43 3 4.02027 6.40381 11.7891 0.971858 -0.048003 -0.199932
37 3 3.91436 9.14 2.78192 0.351573 0.0538396 -0.0518148
11 1 4.50939 10.0192 6.55254 -0.441431 -0.0602697 0.0919847
38 3 4.5427 9.42972 10.2161 0.364786 -0.110901 -0.852971
8 1 5.23039 0.818827 3.77896 -0.282337 -0.420381 -0.017806
25 1 7.24308 1.28122 5.53143 0.0836143 -0.0964962 0.355338
15 1 6.07683 2.5267 12.2638 0.61676 -0.472509 0.0792511
28 1 7.13489 0.54492 9.50256 -0.592159 -0.491515 0.258473
57 3 5.49456 2.39339 10.03 -0.29986 0.0598298 -0.741903
21 1 6.95837 2.61134 2.74961 -0.0863257 0.348843 -0.13448
29 1 6.17009 2.78783 7.57638 -0.073527 -0.575916 0.831931
61 4 5.3972 4.993 7.49939 -0.753518 0.288416 -0.189857
7 1 7.67889 5.79158 2.70807 -0.168276 -0.128672 -0.169468
54 3 7.16663 7.3835 1.09414 0.0211449 -0.906653 -0.191168
42 3 5.21917 6.29711 4.1358 -0.721785 -0.142258 0.467656
2 1 7.45114 5.87387 7.55323 0.267887 -0.262511 0.122386
17 1 6.34717 5.50046 12.1897 0.240736 0.143469 0.0697099
26 1 5.64481 6.5541 9.58803 0.129854 -0.169862 -0.0276699
27 1 6.48104 8.742 3.00618 0.304254 -0.0731155 -0.0685556
1 1 6.48749 9.19653 0.0594541 -0.341214 0.0727947 -0.830455
58 3 5.79497 8.75664 8.59799 -0.268935 0.688917 0.683821
24 1 9.32468 2.24933 0.487356 -0.158165 -0.516665 -0.186375
64 4 7.71743 0.381051 3.60409 -0.603425 -0.0111096 -0.678322
52 3 8.5837 1.17037 7.43425 -0.341661 -0.512839 0.415194
16 1 8.57234 2.07025 10.2443 0.313927 -0.260658 -0.095543
51 3 8.03374 0.599967 11.8925 -0.805478 -0.0516193 -0.167096
10 1 9.49354 3.85322 2.9107 0.196797 0.134713 -0.20894
46 3 7.83788 3.79276 0.908344 -0.90091 1.3177 0.287165
62 4 8.163 3.36434 4.6491 0.473156 0.61334 -0.186382
55 3 8.1695 4.03965 8.99045 -0.623518 -0.145152 -0.59067
12 1 9.13492 6.05448 0.249504 -0.265641 -0.192956 0.0808566
35 2 9.99035 6.37651 5.66293 1.06852 0.329174 -0.089823
49 3 9.7586 6.60303 3.58296 0.700999 -0.474373 0.0524701
22 1 9.96114 7.11866 8.92764 -0.372094 0.0615071 0.523966
40 3 8.5999 7.57627 6.69589 1.73503 0.750949 0.207137
47 3 7.89226 5.693 10.1121 0.170196 1.64128 1.64796
30 1 9.3882 9.04279 0.208103 -0.542271 0.418146 0.3404
9 1 10.0933 9.50768 7.31741 -0.146971 0.258831 -0.292893
ITEM: TIMESTEP
35
ITEM: NUMBER OF ATOMS
65
ITEM: BOX BOUNDS pp pp pp
0.0000000000000000e+00 1.0250000000000000e+01
0.0000000000000000e+00 1.0250000000000000e+01
0.0000000000000000e+00 1.2350000000000000e+01
ITEM: ATOMS id type x y z fx fy fz
3 1 2.32262 1.75394 0.394211 0.823305 0.352881 -0.181436
50 3 0.693252 2.25729 2.24199 0.826843 -0.274385 0.309418
6 1 2.12605 0.607015 8.11225 -0.512852 -0.184837 -0.00630894
41 3 0.304866 1.92599 7.22406 -0.0312317 0.820043 -0.0129399
48 3 0.733883 2.55605 11.0736 0.445669 0.136106 0.249007
44 3 2.00067 3.86182 1.70019 -0.348137 0.403748 -0.0167128
23 1 0.176242 3.67766 5.56805 -0.306927 0.0810166 0.918333
60 3 2.38209 4.50702 5.09307 -0.144935 0.291356 0.111986
13 1 0.227001 3.65983 9.06917 0.0990565 0.249284 -0.444845
33 2 0.951595 4.35897 12.1791 -0.230707 -0.366028 -0.678418
4 1 1.59872 7.03592 2.3638 -0.293291 0.382834 0.678385
65 4 0.829132 7.58852 0.301452 0.120275 -0.314782 -0.611756
34 2 1.9952 7.27665 5.97518 -0.134584 -0.0498052 0.381038
45 3 1.8708 5.75338 9.15549 -0.237931 -0.38268 0.618551
20 1 2.27632 7.54074 10.6995 -0.0592381 0.732335 0.025277
39 3 2.05808 9.34555 6.11245 -0.0564931 -1.09617 -0.0190084
63 4 1.03754 9.15061 9.28946 -0.0967281 -1.0843 -0.957099
56 3 4.5039 1.84576 1.84163 0.408981 0.61445 -0.0014553
59 3 4.25025 -0.0104665 0.942665 -0.293797 -0.44723 0.199234
5 1 2.68157 1.88293 3.99481 0.0570265 0.420722 -0.28355
53 3 4.79645 1.99229 5.73181 0.179365 -0.967627 -0.0617865
36 3 3.8062 1.11729 9.9151 0.432531 0.0264966 0.7689
18 1 4.65779 4.11782 5.45184 0.168594 0.274201 -0.536158
32 2 2.82603 4.9096 10.9503 0.964038 -1.1795 -0.169218
19 1 4.92014 6.70233 1.90948 0.153535 0.40028 -0.560086
31 2 3.11951 6.26395 4.18859 -0.628583 0.615407 -0.325555
14 1 3.17295 5.346 7.30375 -0.597862 0.183508 0.299711
43 3 4.02473 6.42753 11.8033 0.895818 -0.346789 -0.308463
37 3 3.91651 9.14972 2.7979 0.25344 0.1383 0.026629
11 1 4.49885 10.0465 6.58633 -0.373777 -0.142385 -0.183722
38 3 4.57306 9.44902 10.1937 0.169857 -0.232141 -0.505393