INPUT data for lammps

65 atoms
4 atom types
0.0 10.25 xlo xhi
0.0 10.25 ylo yhi
0.0 12.35 zlo zhi

Masses

1 6.941
2 30.973
3 32.06
4 35.453

Atoms

1 1 6.20008 9.28208 12.24971
2 1 7.612 5.77518 7.56331
3 1 2.5167 1.79302 0.46485
4 1 1.45284 7.74107 2.56988
5 1 3.09319 2.24493 3.93741
6 1 1.9675 0.44788 8.16863
7 1 7.52918 5.67914 2.66666
8 1 5.31092 0.59986 3.7148
9 1 10.03458 9.65529 7.08184
10 1 9.75541 4.23566 2.7458
11 1 4.34825 9.85664 6.544
12 1 9.05656 5.93554 0.03356
13 1 0.35716 3.78242 9.03353
14 1 3.06277 5.36374 7.32572
15 1 6.55437 2.23571 12.16889
16 1 8.93398 1.9007 10.09775
17 1 6.47464 5.45145 12.14688
18 1 4.98429 4.11339 5.33877
19 1 4.73562 6.88289 1.72292
20 1 2.16301 7.80323 10.73317
21 1 7.25581 2.39651 2.68508
22 1 9.83644 7.15366 9.07201
23 1 0.05007 3.83201 5.74074
24 1 9.37726 1.99226 0.54063
25 1 7.42213 1.44341 5.49379
26 1 5.52084 6.47203 9.54968
27 1 6.43605 8.35398 3.14836
28 1 7.06255 0.12552 9.55086
29 1 6.18745 2.81943 7.70693
30 1 8.85473 8.89441 0.61968
31 2 2.90525 6.24531 4.15844
32 2 2.92928 4.70325 10.90709
33 2 0.97141 4.42769 12.02198
34 2 2.03673 7.24987 6.03468
35 2 10.22017 6.35704 5.59758
36 3 3.80545 1.04788 9.97858
37 3 3.95713 9.07225 2.66721
38 3 4.42858 9.30806 10.20867
39 3 2.02569 9.33233 5.86273
40 3 8.94778 7.55354 6.76612
41 3 0.27674 2.04323 7.33525
42 3 5.03322 6.3221 4.16781
43 3 4.09908 6.29537 11.69974
44 3 1.75768 4.02661 1.69576
45 3 1.84162 5.67236 9.32099
46 3 7.96365 3.91683 1.04638
47 3 7.89074 5.94724 10.12986
48 3 0.81966 2.51768 11.1843
49 3 9.71962 6.71937 3.57411
50 3 1.00737 2.18691 2.36333
51 3 8.01733 0.41612 11.71673
52 3 8.54837 1.28691 7.63965
53 3 5.00612 1.72604 5.71945
54 3 7.0355 7.39837 1.0776
55 3 8.21813 4.09472 9.12869
56 3 4.7678 1.96554 1.7125
57 3 5.49571 2.21062 9.87884
58 3 5.51011 8.76842 8.51708
59 3 4.20555 0.06549 1.0109
60 3 2.51776 4.35743 5.08938
61 4 5.3398 5.13337 7.53466
62 4 8.13165 3.59947 4.63345
63 4 0.69725 9.23103 9.42311
64 4 7.59796 0.14994 3.50658
65 4 0.67654 7.81318 0.36192
