LAMMPS (9 Oct 2020)
OMP_NUM_THREADS environment is not set. Defaulting to 1 thread. (../comm.cpp:94)
  using 1 OpenMP thread(s) per MPI task
# Test of GAP potential for Si system

units		metal
boundary	p p p

atom_style	atomic

read_data	lammpsdata
Reading data file ...
  orthogonal box = (0.0000000 0.0000000 0.0000000) to (10.250000 10.250000 12.350000)
  4 by 4 by 4 MPI processor grid
  reading atoms ...
  65 atoms
  read_data CPU = 0.017 seconds
group	 	g_Li id 1
1 atoms in group g_Li
group 		g_P id 2
1 atoms in group g_P
group		g_S id 3
1 atoms in group g_S
group       g_Cl id 4
1 atoms in group g_Cl

pair_style	quip
pair_coeff	* * ../gap/GAP.xml "Potential xml_label=GAP_2022_9_29_-300_10_3_1_440" 3 15 16 17

neighbor	0.3 bin
neigh_modify	delay 10

thermo		1
timestep	0.001
thermo_style	custom step temp pe ke etotal

dump		d1 all custom 5 dump id type x y z fx fy fz

variable poteng equal pe
variable kineng equal ke
variable toteng equal etotal
variable temper equal temp
variable stepnum equal step
fix pots all print 1 "${stepnum} ${temper} ${poteng} ${kineng} ${toteng}" file energy3 title "Step Temp PotEng (eV) KinEng (eV) TotEng (eV)"

velocity all create 1000 825577 dist gaussian

fix 1 all nvt temp 1000 1000 0.1
run 40
Neighbor list info ...
  update every 1 steps, delay 10 steps, check yes
  max neighbors/atom: 2000, page size: 100000
  master list distance cutoff = 4.3
  ghost atom cutoff = 4.3
  binsize = 2.15, bins = 5 5 6
  1 neighbor lists, perpetual/occasional/extra = 1 0 0
  (1) pair quip, perpetual
      attributes: full, newton on
      pair build: full/bin/atomonly
      stencil: full/bin/3d
      bin: standard
0 1000 -260.621326520086 8.27264928 -252.348677240086
Per MPI rank memory allocation (min/avg/max) = 3.207 | 3.926 | 4.207 Mbytes
Step Temp PotEng KinEng TotEng 
       0         1000   -260.62133    8.2726493   -252.34868 
1 1000.18418735336 -260.622725464492 8.27417299737612 -252.348552467115
       1    1000.1842   -260.62273     8.274173   -252.34855 
2 994.918406972344 -260.579158598427 8.23061104309851 -252.348547555329
       2    994.91841   -260.57916     8.230611   -252.34855 
3 984.297764420485 -260.491284025892 8.14275019213874 -252.348533833753
       3    984.29776   -260.49128    8.1427502   -252.34853 
4 968.383782803702 -260.359607543277 8.01109940357473 -252.348508139702
       4    968.38378   -260.35961    8.0110994   -252.34851 
5 947.34980040904 -260.185360008183 7.83709264426199 -252.348267363921
       5     947.3498   -260.18536    7.8370926   -252.34827 
6 921.531523786237 -259.971388901155 7.62350709674752 -252.347881804408
       6    921.53152   -259.97139    7.6235071   -252.34788 
7 891.406348434281 -259.721719649171 7.37429208656228 -252.347427562608
       7    891.40635   -259.72172    7.3742921   -252.34743 
8 857.624644051889 -259.44132201327 7.09482789412612 -252.346494119144
       8    857.62464   -259.44132    7.0948279   -252.34649 
9 821.071707847795 -259.137780989826 6.79243827275543 -252.345342717071
       9    821.07171   -259.13778    6.7924383   -252.34534 
10 782.796647412352 -258.819840231372 6.47580212160221 -252.34403810977
      10    782.79665   -258.81984    6.4758021   -252.34404 
11 743.868282456638 -258.496100241457 6.15376141127974 -252.342338830177
      11    743.86828    -258.4961    6.1537614   -252.34234 
12 705.372021775891 -258.175728046638 5.83529534807647 -252.340432698561
      12    705.37202   -258.17573    5.8352953   -252.34043 
13 668.345129816142 -257.867299896316 5.52898485696501 -252.338315039351
      13    668.34513    -257.8673    5.5289849   -252.33832 
14 633.662606977258 -257.578164203131 5.24206850937334 -252.336095693758
      14    633.66261   -257.57816    5.2420685    -252.3361 
15 602.032982094039 -257.314064545451 4.98040771585651 -252.333656829595
      15    602.03298   -257.31406    4.9804077   -252.33366 
16 574.042734137473 -257.079799649133 4.7488542112516 -252.330945437881
      16    574.04273    -257.0798    4.7488542   -252.33095 
17 550.133186901852 -256.879164426816 4.55105891252771 -252.328105514288
      17    550.13319   -256.87916    4.5510589   -252.32811 
18 530.524407541752 -256.713948476438 4.3888423580727 -252.325106118365
      18    530.52441   -256.71395    4.3888424   -252.32511 
19 515.271483522916 -256.584477639947 4.26266026717038 -252.321817372776
      19    515.27148   -256.58448    4.2626603   -252.32182 
20 504.323949071428 -256.490340287402 4.1720951541725 -252.31824513323
      20    504.32395   -256.49034    4.1720952   -252.31825 
21 497.51113408016 -256.430170294362 4.11573512514022 -252.314435169222
      21    497.51113   -256.43017    4.1157351   -252.31444 
22 494.541004018195 -256.401400737015 4.0911642808216 -252.310236456194
      22      494.541    -256.4014    4.0911643   -252.31024 
23 495.0494621399 -256.401010141235 4.09537057653603 -252.305639564699
      23    495.04946   -256.40101    4.0953706   -252.30564 
24 498.56664701407 -256.425133338619 4.12446701345296 -252.300666325166
      24    498.56665   -256.42513     4.124467   -252.30067 
25 504.588800569848 -256.469479018371 4.17428617773022 -252.295192840641
      25     504.5888   -256.46948    4.1742862   -252.29519 
26 512.674518227995 -256.530313359498 4.24117648409317 -252.289136875405
      26    512.67452   -256.53031    4.2411765   -252.28914 
27 522.402183135158 -256.604266047883 4.32165004418349 -252.2826160037
      27    522.40218   -256.60427      4.32165   -252.28262 
28 533.335076245092 -256.687599536988 4.41209403449771 -252.27550550249
      28    533.33508    -256.6876     4.412094   -252.27551 
29 545.138030989634 -256.777521138271 4.50973573956701 -252.267785398704
      29    545.13803   -256.77752    4.5097357   -252.26779 
30 557.534462921482 -256.871666394679 4.61228707326258 -252.259379321417
      30    557.53446   -256.87167    4.6122871   -252.25938 
31 570.2259589223 -256.967606623504 4.71727936851588 -252.250327254988
      31    570.22596   -256.96761    4.7172794   -252.25033 
32 583.020279063926 -257.063602229914 4.82312229182359 -252.24047993809
      32    583.02028    -257.0636    4.8231223   -252.24048 
33 595.825758828264 -257.159126421138 4.92905753477609 -252.230068886362
      33    595.82576   -257.15913    4.9290575   -252.23007 
34 608.591775468464 -257.253658961759 5.03466631314311 -252.218992648616
      34    608.59178   -257.25366    5.0346663   -252.21899 
35 621.264621697983 -257.346806464655 5.13950432537929 -252.207302139276
      35    621.26462   -257.34681    5.1395043    -252.2073 
36 633.729454212183 -257.437639945069 5.24262151310321 -252.195018431966
      36    633.72945   -257.43764    5.2426215   -252.19502 
37 645.810831165689 -257.524683599769 5.34256650745904 -252.18211709231
      37    645.81083   -257.52468    5.3425665   -252.18212 
38 657.2739999586 -257.606104186448 5.43739728252023 -252.168706903927
      38      657.274    -257.6061    5.4373973   -252.16871 
39 667.868913228319 -257.679580840781 5.52504528415264 -252.154535556628
      39    667.86891   -257.67958    5.5250453   -252.15454 
40 677.374049937537 -257.743495448074 5.60367794650645 -252.139817501567
      40    677.37405    -257.7435    5.6036779   
Nlocal:        1.01562 ave           3 max           0 min
Histogram: 16 0 0 32 0 0 15 0 0 1
Nghost:        72.7188 ave          78 max          66 min
Histogram: 4 2 3 3 6 19 9 9 3 6
Neighs:        0.00000 ave           0 max           0 min
Histogram: 64 0 0 0 0 0 0 0 0 0
FullNghs:      15.9375 ave          51 max           0 min
Histogram: 16 0 19 13 0 4 11 0 0 1

Total # of neighbors = 1020
Ave neighs/atom = 15.692308
Neighbor list builds = 4
Dangerous builds = 4
Total wall time: 0:00:06
7    | 2.1822     |  89.4 | 33.56
Output  | 0.023656   | 0.028904   | 0.029421   |   0.4 |  1.30
Modify  | 0.010503   | 0.015806   | 0.10073    |  11.5 |  0.71
Other   |            | 0.0007809  |            |       |  0.04

Nlocal:        1.01562 ave           3 max           0 min
Histogram: 16 0 0 32 0 0 15 0 0 1
Nghost:        72.7188 ave          78 max          66 min
Histogram: 4 2 3 3 6 19 9 9 3 6
Neighs:        0.00000 ave           0 max           0 min
Histogram: 64 0 0 0 0 0 0 0 0 0
FullNghs:      15.9375 ave          51 max           0 min
Histogram: 16 0 19 13 0 4 11 0 0 1

Total # of neighbors = 1020
Ave neighs/atom = 15.692308
Neighbor list builds = 4
Dangerous builds = 4
unfix 1
Total wall time: 0:00:06
