LAMMPS (9 Oct 2020)
OMP_NUM_THREADS environment is not set. Defaulting to 1 thread. (../comm.cpp:94)
  using 1 OpenMP thread(s) per MPI task
# Test of GAP potential for Si system

units		metal
boundary	p p p

atom_style	atomic

read_data	lammpsdata
Reading data file ...
  orthogonal box = (0.0000000 0.0000000 0.0000000) to (10.250000 10.250000 12.350000)
  4 by 4 by 4 MPI processor grid
  reading atoms ...
  65 atoms
  read_data CPU = 0.016 seconds
group	 	g_Li id 1
1 atoms in group g_Li
group 		g_P id 2
1 atoms in group g_P
group		g_S id 3
1 atoms in group g_S
group       g_Cl id 4
1 atoms in group g_Cl

pair_style	quip
pair_coeff	* * ../gap/GAP.xml "Potential xml_label=GAP_2022_9_29_-300_10_6_16_756" 3 15 16 17

neighbor	0.3 bin
neigh_modify	delay 10

thermo		1
timestep	0.001
thermo_style	custom step temp pe ke etotal

dump		d1 all custom 5 dump id type x y z fx fy fz

variable poteng equal pe
variable kineng equal ke
variable toteng equal etotal
variable temper equal temp
variable stepnum equal step
fix pots all print 1 "${stepnum} ${temper} ${poteng} ${kineng} ${toteng}" file energy4 title "Step Temp PotEng (eV) KinEng (eV) TotEng (eV)"

velocity all create 1000 825577 dist gaussian

fix 1 all nvt temp 1000 1000 0.1
run 80
Neighbor list info ...
  update every 1 steps, delay 10 steps, check yes
  max neighbors/atom: 2000, page size: 100000
  master list distance cutoff = 4.3
  ghost atom cutoff = 4.3
  binsize = 2.15, bins = 5 5 6
  1 neighbor lists, perpetual/occasional/extra = 1 0 0
  (1) pair quip, perpetual
      attributes: full, newton on
      pair build: full/bin/atomonly
      stencil: full/bin/3d
      bin: standard
0 1000 -260.617395257464 8.27264928 -252.344745977464
Per MPI rank memory allocation (min/avg/max) = 3.207 | 3.926 | 4.207 Mbytes
Step Temp PotEng KinEng TotEng 
       0         1000    -260.6174    8.2726493   -252.34475 
1 1000.56715720688 -260.621958579317 8.27734117265912 -252.344617406657
       1    1000.5672   -260.62196    8.2773412   -252.34462 
2 995.498790511006 -260.580026698829 8.23541235256175 -252.344614346267
       2    995.49879   -260.58003    8.2354124   -252.34461 
3 984.937074853196 -260.492545808442 8.1480389831296 -252.344506825312
       3    984.93707   -260.49255     8.148039   -252.34451 
4 969.018346530014 -260.360774510085 8.01634892672831 -252.344425583357
       4    969.01835   -260.36077    8.0163489   -252.34443 
5 947.949732240634 -260.186252398083 7.84205566989667 -252.344196728186
       5    947.94973   -260.18625    7.8420557    -252.3442 
6 922.104161901424 -259.972008475194 7.62824433103882 -252.343764144156
       6    922.10416   -259.97201    7.6282443   -252.34376 
7 892.055963734473 -259.722858017751 7.3796661261077 -252.343191891643
       7    892.05596   -259.72286    7.3796661   -252.34319 
8 858.529061729609 -259.444610728842 7.10230982437653 -252.342300904466
       8    858.52906   -259.44461    7.1023098    -252.3423 
9 822.396128010495 -259.144576746217 6.80339473626081 -252.341182009956
       9    822.39613   -259.14458    6.8033947   -252.34118 
10 784.726267701927 -258.831421134338 6.49176519350143 -252.339655940836
      10    784.72627   -258.83142    6.4917652   -252.33966 
11 746.542985471398 -258.513993516189 6.17588829124901 -252.33810522494
      11    746.54299   -258.51399    6.1758883   -252.33811 
12 708.717712923544 -258.19930595751 5.8629730775402 -252.33633287997
      12    708.71771   -258.19931    5.8629731   -252.33633 
13 672.024471275808 -257.893879227292 5.5594227584422 -252.33445646885
      13    672.02447   -257.89388    5.5594228   -252.33446 
14 637.056358024681 -257.602598263032 5.2701438215323 -252.3324544415
      14    637.05636    -257.6026    5.2701438   -252.33245 
15 604.26710439056 -257.329052117995 4.99888982606425 -252.330162291931
      15     604.2671   -257.32905    4.9988898   -252.33016 
16 574.002355867724 -257.076154977974 4.74852017598743 -252.327634801986
      16    574.00236   -257.07615    4.7485202   -252.32763 
17 546.534519919488 -256.846133924323 4.5212884027071 -252.324845521616
      17    546.53452   -256.84613    4.5212884   -252.32485 
18 522.11192956572 -256.641006978553 4.31924887820127 -252.321758100352
      18    522.11193   -256.64101    4.3192489   -252.32176 
19 500.944894648454 -256.462553469293 4.14414142203321 -252.31841204726
      19    500.94489   -256.46255    4.1441414   -252.31841 
20 483.173448628785 -256.311965360219 3.99712448191404 -252.314840878305
      20    483.17345   -256.31197    3.9971245   -252.31484 
21 468.797897297898 -256.189265825723 3.87820058754697 -252.311065238176
      21     468.7979   -256.18927    3.8782006   -252.31107 
22 457.70602136936 -256.093446583724 3.7864413881329 -252.307005195591
      22    457.70602   -256.09345    3.7864414   -252.30701 
23 449.740245370554 -256.023175786146 3.72054331705173 -252.302632469094
      23    449.74025   -256.02318    3.7205433   -252.30263 
24 444.664217338706 -255.97652042071 3.67855111740881 -252.297969303301
      24    444.66422   -255.97652    3.6785511   -252.29797 
25 442.172840422834 -255.950882328612 3.65794082995952 -252.292941498653
      25    442.17284   -255.95088    3.6579408   -252.29294 
26 441.927007354881 -255.94342230403 3.65590713920691 -252.287515164823
      26    441.92701   -255.94342    3.6559071   -252.28752 
27 443.572100067847 -255.951186187756 3.66951641425436 -252.281669773502
      27     443.5721   -255.95119    3.6695164   -252.28167 
28 446.732970946513 -255.971028724626 3.69566519045294 -252.275363534173
      28    446.73297   -255.97103    3.6956652   -252.27536 
29 451.031385569691 -255.999775366319 3.73122446709051 -252.268550899229
      29    451.03139   -255.99978    3.7312245   -252.26855 
30 456.143285190961 -256.034702452316 3.77351341981184 -252.261189032504
      30    456.14329    -256.0347    3.7735134   -252.26119 
31 461.76164301029 -256.073435635108 3.81999212358069 -252.253443511527
      31    461.76164   -256.07344    3.8199921   -252.25344 
32 467.505068515012 -256.112617984124 3.86750546844706 -252.245112515677
      32    467.50507   -256.11262    3.8675055   -252.24511 
33 472.974544667095 -256.149011885513 3.91275252639857 -252.236259359114
      33    472.97454   -256.14901    3.9127525   -252.23626 
34 477.810106098894 -256.179600751279 3.95275543019574 -252.226845321083
      34    477.81011    -256.1796    3.9527554   -252.22685 
35 481.72064437193 -256.201964600752 3.98510594182459 -252.216858658928
      35    481.72064   -256.20196    3.9851059   -252.21686 
36 484.465419313739 -256.21418024726 4.0078125022707 -252.206367744989
      36    484.46542   -256.21418    4.0078125   -252.20637 
37 485.861748949876 -256.214722946198 4.01936384762974 -252.195359098568
      37    485.86175   -256.21472    4.0193638   -252.19536 
38 485.810544593343 -256.202807823426 4.01894025194653 -252.183867571479
      38    485.81054   -256.20281    4.0189403   -252.18387 
39 484.137832160664 -256.177174013445 4.00510248864468 -252.1720715248
      39    484.13783   -256.17717    4.0051025   -252.17207 
40 480.723263523165 -256.136613750338 3.97685495986416 -252.159758790474
      40    480.72326   -256.13661     3.976855   -252.15976 
41 475.686843908564 -256.08224838239 3.93519042676565 -252.147057955625
      41    475.68684   -256.08225    3.9351904   -252.14706 
42 469.207099626058 -256.015752678416 3.8815857748924 -252.134166903524
      42     448 417.464134407084 -255.506695702765 3.45353437092859 -252.053161331837
      48    417.46413    -255.5067    3.4535344   -252.05316 
49 410.287508277964 -255.433546823254 3.39416465994869 -252.039382163306
      49    410.28751   -255.43355    3.3941647   -252.03938 
50 404.443112222558 -255.371395962973 3.3458160211289 -252.025579941844
      50    404.44311    -255.3714     3.345816   -252.02558 
51 400.133717425112 -255.321807094388 3.31016590936057 -252.011641185028
      51    400.13372   -255.32181    3.3101659   -252.01164 
52 397.480794335063 -255.285843696851 3.28821920706979 -251.997624489781
      52    397.48079   -255.28584    3.2882192   -251.99762 
53 396.512524569218 -255.263602991348 3.2802090508 417.464134407084 -255.506695702765 3.45353437092859 -252.053161331837
      48    417.46413    -255.5067    3.4535344   -252.05316 
49 410.287508277964 -255.433546823254 3.39416465994869 -252.039382163306
      49    410.28751   -255.43355    3.3941647   -252.03938 
50 404.443112222558 -255.371395962973 3.3458160211289 -252.025579941844
      50    404.44311    -255.3714     3.345816   -252.02558 
51 400.133717425112 -255.321807094388 3.31016590936057 -252.011641185028
      51    400.13372   -255.32181    3.3101659   -252.01164 
52 397.480794335063 -255.285843696851 3.28821920706979 -251.997624489781
      52    397.48079   -255.28584    3.2882192   -251.99762 
53 396.512524569218 -255.263602991348 3.28020905088852 -251.98339394046
      53    396.51252    -255.2636    3.2802091   -251.98339 
54 397.235016078301 -255.254855517076 3.28618596975095 -251.968669547325
      54    397.23502   -255.25486     3.286186   -251.96867 
55 399.722865180818 -255.26060658208 3.30676707283763 -251.953839509243
      55    399.72287   -255.26061    3.3067671   -251.95384 
56 403.994490772886 -255.280854951727 3.34210473321628 -251.938750218511
      56    403.99449   -255.28085    3.3421047   -251.93875 
57 409.923655542925 -255.3142866916 3.39115463388215 -251.923132057718
      57    409.92366   -255.31429    3.3911546   -251.92313 
58 417.372342868797 -255.359847774482 3.45277501172547 -251.907072762757
      58    417.37234   -255.35985     3.452775   -251.90707 
59 426.226164512428 -255.416505660288 3.5260195729709 -251.890486087317
      59    426.22616   -255.41651    3.5260196   -251.89049 
60 436.384003281699 -255.48337706295 3.61005181055187 -251.873325252398
      60      436.384   -255.48338    3.6100518   -251.87333 
61 447.77181493538 -255.559850303806 3.70425918242947 -251.855591121377
      61    447.77181   -255.55985    3.7042592   -251.85559 
62 460.274401843384 -255.64502763256 3.8076886990121 -251.837338933548
      62     460.2744   -255.64503    3.8076887   -251.83734 
63 473.729263006946 -255.737460848538 3.91899604652935 -251.818464802008
      63    473.72926   -255.73746     3.918996   -251.81846 
64 487.988669929884 -255.835894553419 4.03695911894362 -251.798935434475
      64    487.98867   -255.83589    4.0369591   -251.79894 
65 502.911989299847 -255.93919536149 4.16041450618475 -251.778780855305
      65    502.91199    -255.9392    4.1604145   -251.77878 
66 518.411445226314 -256.046697608723 4.28863606909523 -251.758061539628
      66    518.41145    -256.0467    4.2886361   -251.75806 
67 534.367824855066 -256.157450418785 4.42063760154243 -251.736812817243
      67    534.36782   -256.15745    4.4206376   -251.73681 
68 550.503287822805 -256.269227144016 4.55412062764496 -251.715106516371
      68    550.50329   -256.26923    4.5541206   -251.71511 
69 566.37364080856 -256.378412677817 4.68541049184591 -251.693002185971
      69    566.37364   -256.37841    4.6854105     -251.693 
70 581.372356455375 -256.480120123328 4.80948960604246 -251.670630517285
      70    581.37236   -256.48012    4.8094896   -251.67063 
71 594.771675222331 -256.568022311037 4.92033747079241 -251.647684840244
      71    594.77168   -256.56802    4.9203375   -251.64768 
72 605.955088244175 -256.637161550946 5.01285392447552 -251.62430762647
      72    605.95509   -256.63716    5.0128539   -251.62431 
73 614.749895445423 -256.685945942928 5.08561027993665 -251.600335662992
      73     614.7499   -256.68595    5.0856103   -251.60034 
74 621.365853360824 -256.716838866629 5.14034177942201 -251.576497087207
      74    621.36585   -256.71684    5.1403418    -251.5765 
75 626.03316451631 -256.73183122045 5.17895280769197 -251.552878412758
      75    626.03316   -256.73183    5.1789528   -251.55288 
76 628.966391424727 -256.732609369474 5.20321836516397 -251.52939100431
      76    628.96639   -256.73261    5.2032184   -251.52939 
77 630.470573798184 -256.721811850403 5.21566193839273 -251.50614991201
      77    630.47057   -256.72181    5.2156619   -251.50615 
78 630.917310537051 -256.702527218318 5.21935763475388 -251.483169583564
      78    630.91731   -256.70253    5.2193576   -251.48317 
79 630.731015360982 -256.678387428549 5.2178164800997 -251.460570948449
      79    630.73102   -256.67839    5.2178165   -251.46057 
80 630.344887879245 -256.652927122738 5.21462218286592 -251.438304939872
      80    630.34489   -256.65293    5.2146222  
Nlocal:        1.01562 ave           3 max           0 min
Histogram: 15 0 0 34 0 0 14 0 0 1
Nghost:        73.0312 ave          79 max          65 min
Histogram: 1 4 3 7 6 12 9 13 2 7
Neighs:        0.00000 ave           0 max           0 min
Histogram: 64 0 0 0 0 0 0 0 0 0
FullNghs:      15.8438 ave          47 max           0 min
Histogram: 15 0 6 25 3 4 6 4 0 1

Total # of neighbors = 1014
Ave neighs/atom = 15.600000
Neighbor list builds = 8
Dangerous builds = 8
Total wall time: 0:00:08
71     | 4.5056     | 112.6 | 35.13
Output  | 0.043728   | 0.055128   | 0.056039   |   0.6 |  1.20
Modify  | 0.021502   | 0.048835   | 0.27129    |  24.0 |  1.06
Other   |            | 0.001416   |            |       |  0.03

Nlocal:        1.01562 ave           3 max           0 min
Histogram: 15 0 0 34 0 0 14 0 0 1
Nghost:        73.0312 ave          79 max          65 min
Histogram: 1 4 3 7 6 12 9 13 2 7
Neighs:        0.00000 ave           0 max           0 min
Histogram: 64 0 0 0 0 0 0 0 0 0
FullNghs:      15.8438 ave          47 max           0 min
Histogram: 15 0 6 25 3 4 6 4 0 1

Total # of neighbors = 1014
Ave neighs/atom = 15.600000
Neighbor list builds = 8
Dangerous builds = 8
unfix 1
Total wall time: 0:00:08
