       N       E                     dE             d eps       ncg     rms          rms(c)
RMM:   1    -0.383454811784E+04   -0.38345E+04   -0.47099E+05   592   0.130E+03
RMM:   2     0.240466207585E+04    0.62392E+04   -0.73865E+04   592   0.251E+02
RMM:   3     0.815510562259E+03   -0.15892E+04   -0.23469E+04   592   0.135E+02
RMM:   4    -0.136681205049E+02   -0.82918E+03   -0.83271E+03   592   0.978E+01
RMM:   5    -0.375285114775E+03   -0.36162E+03   -0.33057E+03   592   0.636E+01
RMM:   6    -0.530643075577E+03   -0.15536E+03   -0.14150E+03   592   0.470E+01
RMM:   7    -0.604742194991E+03   -0.74099E+02   -0.70782E+02   592   0.362E+01
RMM:   8    -0.647966601199E+03   -0.43224E+02   -0.40773E+02   592   0.310E+01
RMM:   9    -0.760983672706E+03   -0.11302E+03   -0.11225E+03  2143   0.272E+01
RMM:  10    -0.816335280162E+03   -0.55352E+02   -0.55678E+02  2137   0.178E+01
RMM:  11    -0.829312930205E+03   -0.12978E+02   -0.13440E+02  2067   0.115E+01
RMM:  12    -0.838287311288E+03   -0.89744E+01   -0.89787E+01  2056   0.891E+00    0.729E+01
RMM:  13    -0.797700971906E+03    0.40586E+02   -0.10482E+02  1591   0.887E+00    0.480E+01
RMM:  14    -0.794216047641E+03    0.34849E+01   -0.88656E+01  1681   0.782E+00    0.151E+01
RMM:  15    -0.794410152298E+03   -0.19410E+00   -0.19120E+01  1904   0.482E+00    0.445E+00
RMM:  16    -0.794714818545E+03   -0.30467E+00   -0.72500E+00  2029   0.329E+00    0.337E+00
RMM:  17    -0.795238206012E+03   -0.52339E+00   -0.57543E+00  1977   0.264E+00    0.203E+00
RMM:  18    -0.795546855732E+03   -0.30865E+00   -0.29437E+00  1956   0.208E+00    0.779E-01
RMM:  19    -0.795826696262E+03   -0.27984E+00   -0.28428E+00  1995   0.172E+00    0.511E-01
RMM:  20    -0.795962027846E+03   -0.13533E+00   -0.13543E+00  2048   0.135E+00    0.568E-01
RMM:  21    -0.796058365228E+03   -0.96337E-01   -0.10336E+00  2014   0.111E+00    0.872E-01
RMM:  22    -0.796117587504E+03   -0.59222E-01   -0.64547E-01  2012   0.916E-01    0.911E-01
RMM:  23    -0.796158543942E+03   -0.40956E-01   -0.45983E-01  1984   0.755E-01    0.913E-01
RMM:  24    -0.796185919838E+03   -0.27376E-01   -0.31097E-01  2048   0.630E-01    0.900E-01
RMM:  25    -0.796203612425E+03   -0.17693E-01   -0.21516E-01  2050   0.520E-01    0.926E-01
RMM:  26    -0.796211966751E+03   -0.83543E-02   -0.15077E-01  1956   0.439E-01    0.110E+00
RMM:  27    -0.796224378363E+03   -0.12412E-01   -0.94938E-02  1952   0.374E-01    0.845E-01
RMM:  28    -0.796234005296E+03   -0.96269E-02   -0.92728E-02  2049   0.314E-01    0.750E-01
RMM:  29    -0.796235663133E+03   -0.16578E-02   -0.46213E-02  2050   0.249E-01    0.824E-01
RMM:  30    -0.796238312490E+03   -0.26494E-02   -0.36424E-02  2050   0.209E-01    0.824E-01
RMM:  31    -0.796237836070E+03    0.47642E-03   -0.24039E-02  1952   0.179E-01    0.907E-01
RMM:  32    -0.796237774559E+03    0.61512E-04   -0.21057E-02  2007   0.153E-01    0.970E-01
RMM:  33    -0.796239689418E+03   -0.19149E-02   -0.11869E-02  1951   0.128E-01    0.904E-01
RMM:  34    -0.796240848461E+03   -0.11590E-02   -0.10156E-02  2048   0.107E-01    0.876E-01
RMM:  35    -0.796240612518E+03    0.23594E-03   -0.63768E-03  1880   0.899E-02    0.900E-01
RMM:  36    -0.796239824223E+03    0.78830E-03   -0.61214E-03  1932   0.839E-02    0.987E-01
RMM:  37    -0.796237456566E+03    0.23677E-02   -0.71831E-03  1864   0.854E-02    0.115E+00
RMM:  38    -0.796237823723E+03   -0.36716E-03   -0.41871E-03  2032   0.658E-02    0.115E+00
RMM:  39    -0.796238937154E+03   -0.11134E-02   -0.25961E-03  1944   0.547E-02    0.110E+00
RMM:  40    -0.796239798353E+03   -0.86120E-03   -0.14582E-03  2024   0.452E-02    0.107E+00
RMM:  41    -0.796242510208E+03   -0.27119E-02   -0.11459E-03  2033   0.415E-02    0.100E+00
RMM:  42    -0.796246848569E+03   -0.43384E-02   -0.15628E-03  1748   0.510E-02    0.839E-01
RMM:  43    -0.796250623200E+03   -0.37746E-02   -0.48979E-03  1659   0.763E-02    0.548E-01
RMM:  44    -0.796251485278E+03   -0.86208E-03   -0.23617E-03  1755   0.437E-02    0.428E-01
RMM:  45    -0.796252721450E+03   -0.12362E-02   -0.16327E-03  1673   0.444E-02    0.277E-01
RMM:  46    -0.796252935051E+03   -0.21360E-03   -0.85652E-04  1953   0.261E-02    0.227E-01
RMM:  47    -0.796253097429E+03   -0.16238E-03   -0.68968E-04  1823   0.245E-02    0.163E-01
RMM:  48    -0.796253242851E+03   -0.14542E-03   -0.61988E-04  1861   0.238E-02    0.960E-02
RMM:  49    -0.796253292969E+03   -0.50119E-04   -0.27384E-04  1978   0.166E-02    0.659E-02
RMM:  50    -0.796253313028E+03   -0.20059E-04   -0.19663E-04  1940   0.143E-02    0.374E-02
RMM:  51    -0.796253316993E+03   -0.39652E-05   -0.11754E-04  1920   0.114E-02    0.219E-02
RMM:  52    -0.796253312376E+03    0.46177E-05   -0.81716E-05  1865   0.100E-02    0.631E-03
RMM:  53    -0.796253317152E+03   -0.47761E-05   -0.62207E-05  1649   0.810E-03    0.300E-03
RMM:  54    -0.796253318535E+03   -0.13837E-05   -0.20155E-05  1114   0.649E-03    0.250E-03
RMM:  55    -0.796253320316E+03   -0.17803E-05   -0.17306E-05  1174   0.612E-03    0.252E-03
RMM:  56    -0.796253320582E+03   -0.26581E-06   -0.13667E-05  1118   0.580E-03    0.235E-03
RMM:  57    -0.796253326119E+03   -0.55377E-05   -0.12308E-05  1157   0.553E-03    0.383E-03
RMM:  58    -0.796253323742E+03    0.23768E-05   -0.10384E-05  1137   0.534E-03    0.246E-03
RMM:  59    -0.796253322453E+03    0.12891E-05   -0.84496E-06  1085   0.521E-03    0.139E-03
RMM:  60    -0.796253319557E+03    0.28965E-05   -0.73049E-06  1086   0.520E-03    0.189E-03
RMM:  61    -0.796253319287E+03    0.27027E-06   -0.67535E-06  1087   0.513E-03
   1 F= -.79625332E+03 E0= -.79625219E+03  d E =-.796253E+03
