 vasp.5.4.4.18Apr17-6-g9f103f2a35 (build Jan 22 2020 12:49:05) complex          
  
 executed on Bebop BDW IPS19.0.5  date 2022.10.04  12:45:15
 running on   64 total cores
 distrk:  each k-point on   64 cores,    1 groups
 distr:  one band on NCORES_PER_BAND=   8 cores,    8 groups


--------------------------------------------------------------------------------------------------------


 INCAR:
 POTCAR:    PAW_PBE Li_sv 10Sep2004               
 POTCAR:    PAW_PBE P 06Sep2000                   
 POTCAR:    PAW_PBE S 06Sep2000                   
 POTCAR:    PAW_PBE Cl 06Sep2000                  
 POTCAR:    PAW_PBE Li_sv 10Sep2004               
   VRHFIN =Li: 1s2s2p                                                           
   LEXCH  = PE                                                                  
   EATOM  =   202.7858 eV,   14.9043 Ry                                         
                                                                                
   TITEL  = PAW_PBE Li_sv 10Sep2004                                             
   LULTRA =        F    use ultrasoft PP ?                                      
   IUNSCR =        0    unscreen: 0-lin 1-nonlin 2-no                           
   RPACOR =    0.000    partial core radius                                     
   POMASS =    7.010; ZVAL   =    3.000    mass and valenz                      
   RCORE  =    1.700    outmost cutoff radius                                   
   RWIGS  =    2.050; RWIGS  =    1.085    wigner-seitz radius (au A)           
   ENMAX  =  499.034; ENMIN  =  374.276 eV                                      
   ICORE  =        2    local potential                                         
   LCOR   =        T    correct aug charges                                     
   LPAW   =        T    paw PP                                                  
   EAUG   =  628.945                                                            
   RMAX   =    1.732    core radius for proj-oper                               
   RAUG   =    1.300    factor for augmentation sphere                          
   RDEP   =    1.728    radius for radial grids                                 
   RDEPT  =    1.329    core radius for aug-charge                              
                                                                                
   Atomic configuration                                                         
    4 entries                                                                   
     n  l   j            E        occ.                                          
     1  0  0.50       -51.8549   2.0000                                         
     2  0  0.50        -2.8742   1.0000                                         
     2  1  0.50        -1.3606   0.0000                                         
     3  2  1.50        -1.3606   0.0000                                         
   Description                                                                  
     l       E           TYP  RCUT    TYP  RCUT                                 
     0    -51.8548813     23  1.400                                             
     0     -2.8742052     23  1.700                                             
     1     -1.3605826     23  1.400                                             
     2     -1.3605826     23  1.400                                             
  local pseudopotential read in
  atomic valenz-charges read in
  non local Contribution for L=           0  read in
    real space projection operators read in
  non local Contribution for L=           0  read in
    real space projection operators read in
  non local Contribution for L=           1  read in
    real space projection operators read in
    PAW grid and wavefunctions read in
 
   number of l-projection  operators is LMAX  =           3
   number of lm-projection operators is LMMAX =           5
 
 POTCAR:    PAW_PBE P 06Sep2000                   
   VRHFIN =P : s2p3                                                             
   LEXCH  = PE                                                                  
   EATOM  =   176.0430 eV,   12.9388 Ry                                         
                                                                                
   TITEL  = PAW_PBE P 06Sep2000                                                 
   LULTRA =        F    use ultrasoft PP ?                                      
   IUNSCR =        1    unscreen: 0-lin 1-nonlin 2-no                           
   RPACOR =    1.500    partial core radius                                     
   POMASS =   30.974; ZVAL   =    5.000    mass and valenz                      
   RCORE  =    1.900    outmost cutoff radius                                   
   RWIGS  =    2.330; RWIGS  =    1.233    wigner-seitz radius (au A)           
   ENMAX  =  255.040; ENMIN  =  191.280 eV                                      
   ICORE  =        2    local potential                                         
   LCOR   =        T    correct aug charges                                     
   LPAW   =        T    paw PP                                                  
   EAUG   =  342.924                                                            
   DEXC   =    0.000                                                            
   RMAX   =    1.935    core radius for proj-oper                               
   RAUG   =    1.300    factor for augmentation sphere                          
   RDEP   =    1.931    radius for radial grids                                 
   RDEPT  =    1.794    core radius for aug-charge                              
                                                                                
   Atomic configuration                                                         
    6 entries                                                                   
     n  l   j            E        occ.                                          
     1  0  0.50     -2084.0982   2.0000                                         
     2  0  0.50      -173.9859   2.0000                                         
     2  1  1.50      -124.4865   6.0000                                         
     3  0  0.50       -13.9692   2.0000                                         
     3  1  0.50        -5.5067   3.0000                                         
     3  2  1.50        -5.4423   0.0000                                         
   Description                                                                  
     l       E           TYP  RCUT    TYP  RCUT                                 
     0    -13.9691527     23  1.900                                             
     0    -11.7794650     23  1.900                                             
     1     -5.5066937     23  1.900                                             
     1     -0.2556953     23  1.900                                             
     2     -5.4423304     23  1.900                                             
  local pseudopotential read in
  partial core-charges read in
  partial kinetic energy density read in
  atomic valenz-charges read in
  non local Contribution for L=           0  read in
    real space projection operators read in
  non local Contribution for L=           0  read in
    real space projection operators read in
  non local Contribution for L=           1  read in
    real space projection operators read in
  non local Contribution for L=           1  read in
    real space projection operators read in
    PAW grid and wavefunctions read in
 
   number of l-projection  operators is LMAX  =           4
   number of lm-projection operators is LMMAX =           8
 
 POTCAR:    PAW_PBE S 06Sep2000                   
   VRHFIN =S : s2p4                                                             
   LEXCH  = PE                                                                  
   EATOM  =   276.8230 eV,   20.3459 Ry                                         
                                                                                
   TITEL  = PAW_PBE S 06Sep2000                                                 
   LULTRA =        F    use ultrasoft PP ?                                      
   IUNSCR =        1    unscreen: 0-lin 1-nonlin 2-no                           
   RPACOR =    1.500    partial core radius                                     
   POMASS =   32.066; ZVAL   =    6.000    mass and valenz                      
   RCORE  =    1.900    outmost cutoff radius                                   
   RWIGS  =    2.200; RWIGS  =    1.164    wigner-seitz radius (au A)           
   ENMAX  =  258.689; ENMIN  =  194.016 eV                                      
   ICORE  =        2    local potential                                         
   LCOR   =        T    correct aug charges                                     
   LPAW   =        T    paw PP                                                  
   EAUG   =  335.092                                                            
   DEXC   =    0.000                                                            
   RMAX   =    1.942    core radius for proj-oper                               
   RAUG   =    1.300    factor for augmentation sphere                          
   RDEP   =    1.954    radius for radial grids                                 
   RDEPT  =    1.744    core radius for aug-charge                              
                                                                                
   Atomic configuration                                                         
    6 entries                                                                   
     n  l   j            E        occ.                                          
     1  0  0.50     -2405.8406   2.0000                                         
     2  0  0.50      -211.7007   2.0000                                         
     2  1  1.50      -156.4958   6.0000                                         
     3  0  0.50       -17.2562   2.0000                                         
     3  1  0.50        -7.0085   4.0000                                         
     3  2  1.50        -6.8029   0.0000                                         
   Description                                                                  
     l       E           TYP  RCUT    TYP  RCUT                                 
     0    -17.2561641     23  1.900                                             
     0    -15.8743224     23  1.900                                             
     1     -7.0085400     23  1.900                                             
     1     -2.7779785     23  1.900                                             
     2     -6.8029130     23  1.900                                             
  local pseudopotential read in
  partial core-charges read in
  partial kinetic energy density read in
  atomic valenz-charges read in
  non local Contribution for L=           0  read in
    real space projection operators read in
  non local Contribution for L=           0  read in
    real space projection operators read in
  non local Contribution for L=           1  read in
    real space projection operators read in
  non local Contribution for L=           1  read in
    real space projection operators read in
    PAW grid and wavefunctions read in
 
   number of l-projection  operators is LMAX  =           4
   number of lm-projection operators is LMMAX =           8
 
 POTCAR:    PAW_PBE Cl 06Sep2000                  
   VRHFIN =Cl: s2p5                                                             
   LEXCH  = PE                                                                  
   EATOM  =   409.7259 eV,   30.1140 Ry                                         
                                                                                
   TITEL  = PAW_PBE Cl 06Sep2000                                                
   LULTRA =        F    use ultrasoft PP ?                                      
   IUNSCR =        1    unscreen: 0-lin 1-nonlin 2-no                           
   RPACOR =    1.500    partial core radius                                     
   POMASS =   35.453; ZVAL   =    7.000    mass and valenz                      
   RCORE  =    1.900    outmost cutoff radius                                   
   RWIGS  =    2.100; RWIGS  =    1.111    wigner-seitz radius (au A)           
   ENMAX  =  262.472; ENMIN  =  196.854 eV                                      
   ICORE  =        2    local potential                                         
   LCOR   =        T    correct aug charges                                     
   LPAW   =        T    paw PP                                                  
   EAUG   =  356.192                                                            
   DEXC   =    0.000                                                            
   RMAX   =    1.945    core radius for proj-oper                               
   RAUG   =    1.300    factor for augmentation sphere                          
   RDEP   =    2.020    radius for radial grids                                 
   RDEPT  =    1.678    core radius for aug-charge                              
                                                                                
   Atomic configuration                                                         
    6 entries                                                                   
     n  l   j            E        occ.                                          
     1  0  0.50     -2751.1850   2.0000                                         
     2  0  0.50      -252.6861   2.0000                                         
     2  1  1.50      -191.6157   6.0000                                         
     3  0  0.50       -20.6916   2.0000                                         
     3  1  0.50        -8.5949   5.0000                                         
     3  2  1.50        -8.1635   0.0000                                         
   Description                                                                  
     l       E           TYP  RCUT    TYP  RCUT                                 
     0    -20.6915656     23  1.900                                             
     0    -22.0521482     23  1.900                                             
     1     -8.5948577     23  1.900                                             
     1     -5.3847331     23  1.900                                             
     2     -8.1634956     23  1.900                                             
  local pseudopotential read in
  partial core-charges read in
  partial kinetic energy density read in
  atomic valenz-charges read in
  non local Contribution for L=           0  read in
    real space projection operators read in
  non local Contribution for L=           0  read in
    real space projection operators read in
  non local Contribution for L=           1  read in
    real space projection operators read in
  non local Contribution for L=           1  read in
    real space projection operators read in
    PAW grid and wavefunctions read in
 
   number of l-projection  operators is LMAX  =           4
   number of lm-projection operators is LMMAX =           8
 

 ----------------------------------------------------------------------------- 
|                                                                             |
|  ADVICE TO THIS USER RUNNING 'VASP/VAMP'   (HEAR YOUR MASTER'S VOICE ...):  |
|                                                                             |
|      You have a (more or less) 'large supercell' and for larger cells       |
|      it might be more efficient to use real space projection opertators     |
|      So try LREAL= Auto  in the INCAR   file.                               |
|      Mind:          For very  accurate calculation you might also keep the  |
|      reciprocal projection scheme          (i.e. LREAL=.FALSE.)             |
|                                                                             |
 ----------------------------------------------------------------------------- 

  PAW_PBE Li_sv 10Sep2004               :
 energy of atom  1       EATOM= -202.7858
 kinetic energy error for atom=    0.0143 (will be added to EATOM!!)
  PAW_PBE P 06Sep2000                   :
 energy of atom  2       EATOM= -176.0430
 kinetic energy error for atom=    0.0013 (will be added to EATOM!!)
  PAW_PBE S 06Sep2000                   :
 energy of atom  3       EATOM= -276.8230
 kinetic energy error for atom=    0.0020 (will be added to EATOM!!)
  PAW_PBE Cl 06Sep2000                  :
 energy of atom  4       EATOM= -409.7259
 kinetic energy error for atom=    0.0030 (will be added to EATOM!!)
 
 
 POSCAR: New POSCAR file                         
  positions in cartesian coordinates
  No initial velocities read in
 exchange correlation table for  LEXCH =        8
   RHO(1)=    0.500       N(1)  =     2000
   RHO(2)=  100.500       N(2)  =     4000
 


--------------------------------------------------------------------------------------------------------


 ion  position               nearest neighbor table
   1  0.743  0.831  0.174- 153 2.27 118 2.45 156 2.56
   2  0.587  0.672  0.998- 196 2.48
   3  0.671  0.636  0.188- 118 2.39 177 2.42  55 2.59 165 2.60
   4  0.809  0.909  0.020- 151 2.13 153 2.36 156 2.44 107 2.71
   5  0.585  0.788  0.286- 191 2.22 118 2.32 177 2.48 171 2.48
   6  0.914  0.731  0.899- 180 2.21 204 2.53  59 2.58
   7  0.235  0.034  0.047- 178 2.45 198 2.59
   8  0.208  0.860  0.279- 202 2.25 170 2.52
   9  0.091  0.024  0.347- 123 2.33
  10  0.225  0.726  0.069- 201 2.27 170 2.33 159 2.36
  11  0.107  0.677  0.895- 144 2.39 180 2.44
  12  0.311  0.855  0.439- 125 2.24 127 2.29
  13  0.345  0.505  0.616- 142 2.24 208 2.36
  14  0.546  0.812  0.540- 115 2.36 114 2.42  98 2.68
  15  0.691  0.863  0.767- 150 2.27 115 2.35 151 2.70
  16  0.361  0.623  0.433- 120 2.49 172 2.51 142 2.51 157 2.54
  17  0.712  0.525  0.744- 174 2.25 117 2.50 135 2.56 176 2.61
  18  0.158  0.746  0.635- 144 2.25  64 2.41 141 2.51 127 2.58
  19  0.001  0.908  0.864- 203 2.21 204 2.49
  20  0.920  0.497  0.972- 180 2.19  24 2.36 133 2.54 205 2.57 186 2.62 167 2.65
  21  0.172  0.462  0.680- 208 2.09 181 2.35 143 2.58
  22  0.516  0.875  0.879- 196 1.74 193 2.38
  23  0.014  0.632  0.737-
  24  0.861  0.548  0.850- 180 2.28 133 2.28  20 2.36 135 2.37 168 2.51 102 2.70
  25  0.395  0.502  0.868- 112 2.24 158 2.28 197 2.56
  26  0.068  0.515  0.859- 134 2.16 205 2.23 180 2.32
  27  0.264  0.601  0.805- 197 2.05 181 2.12 144 2.45
  28  0.428  0.703  0.905- 196 2.12 197 2.17 158 2.63
  29  0.054  0.310  0.688- 200 2.11 134 2.39 189 2.46
  30  0.522  0.629  0.733- 197 2.44 137 2.61 117 2.67 179 2.67
  31  0.268  0.248  0.036- 182 2.23 198 2.37
  32  0.367  0.167  0.138- 182 2.27 194 2.27  99 2.54
  33  0.473  0.071  0.025- 182 2.30 193 2.34
  34  0.442  0.322  0.064- 121 2.38 160 2.45 182 2.63
  35  0.626  0.389  0.177- 190 2.13 165 2.24
  36  0.102  0.177  0.139- 123 2.15  50 2.47 198 2.54
  37  0.819  0.111  0.491- 199 2.13 113 2.50
  38  0.802  0.306  0.668- 183 2.16 174 2.46 199 2.54 102 2.72
  39  0.607  0.014  0.920- 193 2.14 175 2.25 150 2.46 149 2.63
  40  0.560  0.299  0.649- 103 1.38 173 2.44 139 2.65
  41  0.860  0.177  0.797- 152 2.30 189 2.40 183 2.41
  42  0.756  0.314  0.883- 183 2.39 133 2.45 167 2.51
  43  0.472  0.233  0.361- 122 2.38 148 2.48 145 2.50 140 2.52
  44  0.248  0.006  0.706- 126 2.32 187 2.43
  45  0.348  0.083  0.325- 145 2.17
  46  0.981  0.173  0.624- 199 2.14 200 2.30
  47  0.406  0.047  0.517- 126 2.20 145 2.41 192 2.42
  48  0.943  0.340  0.405- 129 1.98 185 2.06
  49  0.385  0.431  0.391- 195 2.39 122 2.57 138 2.69
  50  0.013  0.218  0.255- 123 2.15  36 2.47 163 2.48 161 2.65
  51  0.194  0.260  0.305- 122 2.40 123 2.42 124 2.47
  52  0.963  0.384  0.194- 163 2.32 186 2.46 164 2.48
  53  0.124  0.461  0.298- 185 2.14  60 2.33 169 2.55
  54  0.300  0.474  0.217- 157 2.23 124 2.50 121 2.51
  55  0.787  0.609  0.295- 118 2.29 154 2.45 130 2.53   3 2.59
  56  0.105  0.563  0.097- 186 2.28 169 2.28
  57  0.800  0.492  0.103- 167 2.14 165 2.64
  58  0.102  0.702  0.284- 169 2.38 202 2.49 131 2.55
  59  0.960  0.664  0.035- 180 2.21 201 2.26   6 2.58 156 2.62
  60  0.108  0.446  0.438- 195 2.16 185 2.30  53 2.33 143 2.46 131 2.57
  61  0.432  0.028  0.758- 175 2.38  93 2.40 187 2.47 119 2.50
  62  0.347  0.933  0.913- 187 2.26 178 2.49  65 2.56
  63  0.382  0.869  0.640- 127 2.13 179 2.36 119 2.37 187 2.46
  64  0.080  0.815  0.741- 204 2.08 203 2.20 144 2.20  18 2.41
  65  0.219  0.846  0.872- 178 2.19  62 2.56 187 2.63
  66  0.313  0.763  0.751- 197 2.38 187 2.41 144 2.44 179 2.66
  67  0.052  0.828  0.480- 128 2.07 188 2.59 141 2.66
  68  0.871  0.940  0.495- 207 2.14 188 2.53
  69  0.903  0.785  0.275- 188 2.13 107 2.67
  70  0.899  0.735  0.510- 206 2.26 188 2.36 141 2.36
  71  0.787  0.782  0.402- 188 2.16 118 2.31 206 2.46  87 2.50
  72  0.743  0.130  0.680- 183 2.22 113 2.41
  73  0.994  0.322  0.853- 189 1.98 133 2.38 134 2.42
  74  0.371  0.170  0.865- 182 2.26 184 2.45  91 2.48 175 2.52
  75  0.125  0.154  0.823- 189 2.22 184 2.26
  76  0.276  0.334  0.789- 181 2.29  91 2.45 184 2.63
  77  0.109  0.854  0.060- 201 2.10 178 2.20 155 2.25
  78  0.206  0.463  0.949- 205 2.36 160 2.39 181 2.43 159 2.50
  79  0.578  0.419  0.422- 138 2.26 132 2.46
  80  0.511  0.557  0.108- 165 2.17 158 2.31 177 2.57
  81  0.717  0.243  0.296- 148 2.23 161 2.30 132 2.47 109 2.75
  82  0.529  0.597  0.306- 130 2.40 120 2.57
  83  0.428  0.716  0.248- 177 2.17 171 2.24 170 2.50 157 2.56 111 2.59
  84  0.764  0.436  0.356- 130 2.32 164 2.42 129 2.52
  85  0.812  0.035  0.282- 207 2.31 153 2.57 147 2.59
  86  0.510  0.879  0.138- 191 2.05 193 2.44
  87  0.658  0.695  0.409- 118 2.33 206 2.46  71 2.50 120 2.53
  88  0.678  0.932  0.333- 191 2.27 114 2.32 147 2.57
  89  0.487  0.027  0.254- 105 2.25 191 2.29 194 2.34 145 2.35  90 2.57
  90  0.520  0.938  0.380- 145 2.44 191 2.51  89 2.57
  91  0.381  0.240  0.731- 173 2.23 184 2.39  76 2.45  74 2.48 139 2.52
  92  0.844  0.539  0.560- 135 2.44 206 2.50
  93  0.563  0.095  0.734- 175 2.29 192 2.39  61 2.40  96 2.56 150 2.61
  94  0.216  0.205  0.633- 200 2.25 184 2.39
  95  0.573  0.110  0.475- 145 2.28 140 2.34 147 2.62 113 2.63
  96  0.636  0.179  0.845- 183 2.30 175 2.46  93 2.56 149 2.68
  97  0.695  0.921  0.580- 116 1.97 115 1.98 113 2.12 114 2.15
  98  0.629  0.685  0.607- 117 1.97 137 1.97  14 2.68
  99  0.353  0.297  0.224- 122 2.09 121 2.10 124 2.17  32 2.54
 100  0.210  0.966  0.528- 126 1.90 128 2.04 125 2.10 127 2.38
 101  0.944  0.542  0.404- 129 1.67 131 2.26
 102  0.889  0.433  0.733- 133 2.02 135 2.16 134 2.27  24 2.70  38 2.72
 103  0.518  0.333  0.583-  40 1.38 138 1.87 139 2.20 140 2.35
 104  0.109  0.601  0.520- 143 1.92 131 2.15 141 2.16
 105  0.600  0.109  0.249- 148 2.21 147 2.23  89 2.25 146 2.28
 106  0.788  0.003  0.853- 151 1.93 152 1.99 150 1.99 149 2.17
 107  0.923  0.857  0.130- 155 1.99 153 2.03 156 2.27  69 2.67   4 2.71
 108  0.342  0.536  0.055- 158 2.02 160 2.19 159 2.40
 109  0.840  0.253  0.179- 161 2.07 163 2.08 164 2.14 162 2.15  81 2.75
 110  0.668  0.482  0.977- 168 1.91 166 2.06 165 2.15 167 2.22
 111  0.276  0.662  0.255- 170 2.02 157 2.02 172 2.13 169 2.15  83 2.59
 112  0.505  0.416  0.858- 176 1.98 166 2.13  25 2.24 173 2.48
 113  0.696  0.052  0.564-  97 2.12  72 2.41  37 2.50  95 2.63
 114  0.655  0.878  0.462-  97 2.15  88 2.32  14 2.42
 115  0.605  0.882  0.653-  97 1.98 119 2.13  15 2.35  14 2.36
 116  0.794  0.869  0.629-  97 1.97
 117  0.681  0.674  0.715-  98 1.97  17 2.50  30 2.67
 118  0.719  0.734  0.287-  55 2.29  71 2.31   5 2.32  87 2.33   3 2.39   1 2.45
 119  0.498  0.959  0.638- 115 2.13  63 2.37  61 2.50 192 2.77
 120  0.502  0.689  0.431- 171 2.07  16 2.49  87 2.53  82 2.57
 121  0.432  0.395  0.189- 190 1.99  99 2.10  34 2.38  54 2.51
 122  0.334  0.286  0.350-  99 2.09  43 2.38  51 2.40  49 2.57
 123  0.119  0.137  0.262-  36 2.15  50 2.15   9 2.33  51 2.42
 124  0.232  0.338  0.182-  99 2.17  51 2.47  54 2.50
 125  0.245  0.971  0.405- 100 2.10  12 2.24
 126  0.283  0.046  0.575- 100 1.90  47 2.20  44 2.32
 127  0.272  0.840  0.573-  63 2.13  12 2.29 100 2.38  18 2.58
 128  0.085  0.945  0.519- 100 2.04  67 2.07
 129  0.901  0.452  0.430- 101 1.67  48 1.98  84 2.52
 130  0.657  0.522  0.312-  84 2.32  82 2.40  55 2.53 190 2.64
 131  0.075  0.595  0.394- 104 2.15 101 2.26  58 2.55  60 2.57
 132  0.682  0.307  0.428- 140 2.07  79 2.46  81 2.47
 133  0.873  0.407  0.853- 102 2.02  24 2.28  73 2.38  42 2.45  20 2.54
 134  0.028  0.435  0.761-  26 2.16 102 2.27  29 2.39  73 2.42
 135  0.863  0.562  0.706- 102 2.16  24 2.37  92 2.44  17 2.56
 136  0.680  0.481  0.548- 174 1.92 137 2.52
 137  0.566  0.581  0.587-  98 1.97 136 2.52  30 2.61
 138  0.483  0.425  0.524- 103 1.87  79 2.26  49 2.69
 139  0.424  0.235  0.583- 192 1.99 103 2.20  91 2.52  40 2.65
 140  0.575  0.256  0.475- 132 2.07  95 2.34 103 2.35  43 2.52
 141  0.026  0.694  0.571- 104 2.16  70 2.36  18 2.51  67 2.66
 142  0.348  0.640  0.584- 179 2.14  13 2.24  16 2.51
 143  0.064  0.502  0.570- 104 1.92  60 2.46  21 2.58
 144  0.170  0.715  0.768-  64 2.20  18 2.25  11 2.39  66 2.44  27 2.45
 145  0.467  0.080  0.386-  45 2.17  95 2.28  89 2.35  47 2.41  90 2.44  43 2.50
 146  0.692  0.096  0.143- 162 2.03 105 2.28
 147  0.681  0.090  0.358- 105 2.23  88 2.57  85 2.59  95 2.62
 148  0.583  0.245  0.257- 105 2.21  81 2.23  43 2.48
 149  0.747  0.098  0.938- 106 2.17  39 2.63  96 2.68
 150  0.682  0.001  0.790- 106 1.99  15 2.27  39 2.46  93 2.61
 151  0.797  0.891  0.892- 106 1.93   4 2.13  15 2.70
 152  0.876  0.036  0.775- 106 1.99  41 2.30
 153  0.832  0.940  0.159- 107 2.03   1 2.27   4 2.36  85 2.57
 154  0.920  0.577  0.227- 186 2.17  55 2.45
 155  0.980  0.902  0.032- 107 1.99  77 2.25
 156  0.838  0.767  0.065- 107 2.27   4 2.44   1 2.56  59 2.62
 157  0.362  0.576  0.285- 111 2.02  54 2.23  16 2.54  83 2.56
 158  0.442  0.562  0.985- 108 2.02  25 2.28  80 2.31  28 2.63
 159  0.238  0.612  0.980-  10 2.36 108 2.40  78 2.50
 160  0.330  0.409  0.009- 108 2.19  78 2.39  34 2.45
 161  0.853  0.198  0.292- 109 2.07  81 2.30  50 2.65
 162  0.732  0.212  0.113- 146 2.03 109 2.15
 163  0.955  0.261  0.122- 109 2.08  52 2.32  50 2.48
 164  0.813  0.371  0.233- 109 2.14  84 2.42  52 2.48
 165  0.636  0.505  0.102- 110 2.15  80 2.17  35 2.24   3 2.60  57 2.64
 166  0.595  0.381  0.947- 110 2.06 112 2.13
 167  0.783  0.410  0.001-  57 2.14 110 2.22  42 2.51  20 2.65
 168  0.723  0.570  0.919- 110 1.91  24 2.51
 169  0.169  0.589  0.218- 111 2.15  56 2.28  58 2.38  53 2.55
 170  0.293  0.766  0.188- 111 2.02  10 2.33  83 2.50   8 2.52
 171  0.452  0.785  0.364- 120 2.07  83 2.24   5 2.48
 172  0.247  0.710  0.372- 111 2.13  16 2.51
 173  0.501  0.282  0.785-  91 2.23  40 2.44 112 2.48
 174  0.709  0.426  0.648- 136 1.92  17 2.25  38 2.46
 175  0.509  0.095  0.863-  39 2.25  93 2.29  61 2.38  96 2.46  74 2.52
 176  0.561  0.469  0.763- 112 1.98  17 2.61
 177  0.536  0.701  0.171-  83 2.17   3 2.42   5 2.48  80 2.57
 178  0.226  0.890  0.999-  65 2.19  77 2.20   7 2.45  62 2.49
 179  0.429  0.729  0.640- 142 2.14  63 2.36  66 2.66  30 2.67
 180  0.972  0.608  0.913-  20 2.19  59 2.21   6 2.21  24 2.28  26 2.32  11 2.44
 181  0.242  0.471  0.805-  27 2.12  76 2.29  21 2.35  78 2.43
 182  0.385  0.182  0.002-  31 2.23  74 2.26  32 2.27  33 2.30  34 2.63
 183  0.730  0.241  0.759-  38 2.16  72 2.22  96 2.30  42 2.39  41 2.41
 184  0.254  0.173  0.770-  75 2.26  94 2.39  91 2.39  74 2.45  76 2.63
 185  0.053  0.358  0.342-  48 2.06  53 2.14  60 2.30
 186  0.973  0.516  0.121- 154 2.17  56 2.28  52 2.46  20 2.62
 187  0.337  0.908  0.778-  62 2.26  66 2.41  44 2.43  63 2.46  61 2.47  65 2.63
 188  0.914  0.826  0.398-  69 2.13  71 2.16  70 2.36  68 2.53  67 2.59
 189  0.004  0.215  0.795-  73 1.98  75 2.22  41 2.40  29 2.46
 190  0.529  0.439  0.251- 121 1.99  35 2.13 130 2.64
 191  0.576  0.917  0.238-  86 2.05   5 2.22  88 2.27  89 2.29  90 2.51
 192  0.471  0.128  0.624- 139 1.99  93 2.39  47 2.42 119 2.77
 193  0.538  0.943  0.006-  39 2.14  33 2.34  22 2.38  86 2.44
 194  0.376  0.028  0.162-  32 2.27  89 2.34
 195  0.243  0.444  0.434-  60 2.16  49 2.39
 196  0.541  0.770  0.892-  22 1.74  28 2.12   2 2.48
 197  0.385  0.642  0.795-  27 2.05  28 2.17  66 2.38  30 2.44  25 2.56
 198  0.155  0.162  0.994-  31 2.37  36 2.54   7 2.59
 199  0.868  0.209  0.564-  37 2.13  46 2.14  38 2.54
 200  0.094  0.249  0.580-  29 2.11  94 2.25  46 2.30
 201  0.084  0.726  0.062-  77 2.10  59 2.26  10 2.27
 202  0.069  0.852  0.269-   8 2.25  58 2.49
 203  0.100  0.945  0.778-  64 2.20  19 2.21
 204  0.954  0.800  0.766-  64 2.08  19 2.49   6 2.53
 205  0.064  0.427  0.964-  26 2.23  78 2.36  20 2.57
 206  0.779  0.664  0.497-  70 2.26  71 2.46  87 2.46  92 2.50
 207  0.902  0.012  0.390-  68 2.14  85 2.31
 208  0.263  0.384  0.629-  21 2.09  13 2.36
 

IMPORTANT INFORMATION: All symmetrisations will be switched off!
NOSYMM: (Re-)initialisation of all symmetry stuff for point group C_1.

 
 
 KPOINTS: Regular mesh centered at Gamma          

Automatic generation of k-mesh.
Space group operators:
 irot       det(A)        alpha          n_x          n_y          n_z        tau_x        tau_y        tau_z
    1     1.000000     0.000001     1.000000     0.000000     0.000000     0.000000     0.000000     0.000000
 
 Subroutine IBZKPT returns following result:
 ===========================================
 
 Found      1 irreducible k-points:
 
 Following reciprocal coordinates:
            Coordinates               Weight
  0.000000  0.000000  0.000000      1.000000
 
 Following cartesian coordinates:
            Coordinates               Weight
  0.000000  0.000000  0.000000      1.000000
 


--------------------------------------------------------------------------------------------------------




 Dimension of arrays:
   k-points           NKPTS =      1   k-points in BZ     NKDIM =      1   number of bands    NBANDS=    592
   number of dos      NEDOS =    301   number of ions     NIONS =    208
   non local maximal  LDIM  =      4   non local SUM 2l+1 LMDIM =      8
   total plane-waves  NPLWV = 729000
   max r-space proj   IRMAX =      1   max aug-charges    IRDMAX=   5618
   dimension x,y,z NGX =    90 NGY =   90 NGZ =   90
   dimension x,y,z NGXF=   180 NGYF=  180 NGZF=  180
   support grid    NGXF=   180 NGYF=  180 NGZF=  180
   ions per type =              96  16  80  16
   NGX,Y,Z   is equivalent  to a cutoff of   9.34,  9.29,  9.11 a.u.
   NGXF,Y,Z  is equivalent  to a cutoff of  18.67, 18.59, 18.22 a.u.

 SYSTEM =  LPSC                                    
 POSCAR =  New POSCAR file                         

 Startparameter for this run:
   NWRITE =      2    write-flag & timer
   PREC   = normal    normal or accurate (medium, high low for compatibility)
   ISTART =      0    job   : 0-new  1-cont  2-samecut
   ICHARG =      2    charge: 1-file 2-atom 10-const
   ISPIN  =      1    spin polarized calculation?
   LNONCOLLINEAR =      F non collinear calculations
   LSORBIT =      F    spin-orbit coupling
   INIWAV =      1    electr: 0-lowe 1-rand  2-diag
   LASPH  =      F    aspherical Exc in radial PAW
   METAGGA=      F    non-selfconsistent MetaGGA calc.

 Electronic Relaxation 1
   ENCUT  =  500.0 eV  36.75 Ry    6.06 a.u.  29.22 29.35 29.95*2*pi/ulx,y,z
   ENINI  =  500.0     initial cutoff
   ENAUG  =  628.9 eV  augmentation charge cutoff
   NELM   =    100;   NELMIN=  2; NELMDL=-12     # of ELM steps 
   EDIFF  = 0.1E-05   stopping-criterion for ELM
   LREAL  =      F    real-space projection
   NLSPLINE    = F    spline interpolate recip. space projectors
   LCOMPAT=      F    compatible to vasp.4.4
   GGA_COMPAT  = T    GGA compatible to vasp.4.4-vasp.4.6
   LMAXPAW     = -100 max onsite density
   LMAXMIX     =    2 max onsite mixed and CHGCAR
   VOSKOWN=      0    Vosko Wilk Nusair interpolation
   ROPT   =    0.00000   0.00000   0.00000   0.00000
 Ionic relaxation
   EDIFFG = -.1E-01   stopping-criterion for IOM
   NSW    =      1    number of steps for IOM
   NBLOCK =      1;   KBLOCK =      1    inner block; outer block 
   IBRION =      2    ionic relax: 0-MD 1-quasi-New 2-CG
   NFREE  =      1    steps in history (QN), initial steepest desc. (CG)
   ISIF   =      2    stress and relaxation
   IWAVPR =     11    prediction:  0-non 1-charg 2-wave 3-comb
   ISYM   =      0    0-nonsym 1-usesym 2-fastsym
   LCORR  =      T    Harris-Foulkes like correction to forces

   POTIM  = 0.5000    time-step for ionic-motion
   TEIN   =    0.0    initial temperature
   TEBEG  =    0.0;   TEEND  =   0.0 temperature during run
   SMASS  =  -3.00    Nose mass-parameter (am)
   estimated Nose-frequenzy (Omega)   =  0.10E-29 period in steps =****** mass=  -0.587E-26a.u.
   SCALEE = 1.0000    scale energy and forces
   NPACO  =    256;   APACO  = 16.0  distance and # of slots for P.C.
   PSTRESS=    0.0 pullay stress

  Mass of Ions in am
   POMASS =   7.01 30.97 32.07 35.45
  Ionic Valenz
   ZVAL   =   3.00  5.00  6.00  7.00
  Atomic Wigner-Seitz radii
   RWIGS  =  -1.00 -1.00 -1.00 -1.00
  virtual crystal weights 
   VCA    =   1.00  1.00  1.00  1.00
   NELECT =     960.0000    total number of electrons
   NUPDOWN=      -1.0000    fix difference up-down

 DOS related values:
   EMIN   =  10.00;   EMAX   =-10.00  energy-range for DOS
   EFERMI =   0.00
   ISMEAR =     0;   SIGMA  =   0.05  broadening in eV -4-tet -1-fermi 0-gaus

 Electronic relaxation 2 (details)
   IALGO  =     48    algorithm
   LDIAG  =      T    sub-space diagonalisation (order eigenvalues)
   LSUBROT=      F    optimize rotation matrix (better conditioning)
   TURBO    =      0    0=normal 1=particle mesh
   IRESTART =      0    0=no restart 2=restart with 2 vectors
   NREBOOT  =      0    no. of reboots
   NMIN     =      0    reboot dimension
   EREF     =   0.00    reference energy to select bands
   IMIX   =      4    mixing-type and parameters
     AMIX     =   0.40;   BMIX     =  1.00
     AMIX_MAG =   1.60;   BMIX_MAG =  1.00
     AMIN     =   0.10
     WC   =   100.;   INIMIX=   1;  MIXPRE=   1;  MAXMIX= -45

 Intra band minimization:
   WEIMIN = 0.0010     energy-eigenvalue tresh-hold
   EBREAK =  0.42E-09  absolut break condition
   DEPER  =   0.30     relativ break condition  

   TIME   =   0.40     timestep for ELM

  volume/ion in A,a.u.               =      20.38       137.50
  Fermi-wavevector in a.u.,A,eV,Ry     =   0.997951  1.885854 13.550121  0.995906
  Thomas-Fermi vector in A             =   2.130142
 
 Write flags
   LWAVE        =      F    write WAVECAR
   LDOWNSAMPLE  =      F    k-point downsampling of WAVECAR
   LCHARG       =      F    write CHGCAR
   LVTOT        =      F    write LOCPOT, total local potential
   LVHAR        =      F    write LOCPOT, Hartree potential only
   LELF         =      F    write electronic localiz. function (ELF)
   LORBIT       =     11    0 simple, 1 ext, 2 COOP (PROOUT), +10 PAW based schemes


 Dipole corrections
   LMONO  =      F    monopole corrections only (constant potential shift)
   LDIPOL =      F    correct potential (dipole corrections)
   IDIPOL =      0    1-x, 2-y, 3-z, 4-all directions 
   EPSILON=  1.0000000 bulk dielectric constant

 Exchange correlation treatment:
   GGA     =    --    GGA type
   LEXCH   =     8    internal setting for exchange type
   VOSKOWN=      0    Vosko Wilk Nusair interpolation
   LHFCALC =     F    Hartree Fock is set to
   LHFONE  =     F    Hartree Fock one center treatment
   AEXX    =    0.0000 exact exchange contribution

 Linear response parameters
   LEPSILON=     F    determine dielectric tensor
   LRPA    =     F    only Hartree local field effects (RPA)
   LNABLA  =     F    use nabla operator in PAW spheres
   LVEL    =     F    velocity operator in full k-point grid
   LINTERFAST=   F  fast interpolation
   KINTER  =     0    interpolate to denser k-point grid
   CSHIFT  =0.1000    complex shift for real part using Kramers Kronig
   OMEGAMAX=  -1.0    maximum frequency
   DEG_THRESHOLD= 0.2000000E-02 threshold for treating states as degnerate
   RTIME   =   -0.100 relaxation time in fs
  (WPLASMAI=    0.000 imaginary part of plasma frequency in eV, 0.658/RTIME)
   DFIELD  = 0.0000000 0.0000000 0.0000000 field for delta impulse in time
 
 Orbital magnetization related:
   ORBITALMAG=     F  switch on orbital magnetization
   LCHIMAG   =     F  perturbation theory with respect to B field
   DQ        =  0.001000  dq finite difference perturbation B field
   LLRAUG    =     F  two centre corrections for induced B field



--------------------------------------------------------------------------------------------------------


 conjugate gradient relaxation of ions
 charge density and potential will be updated during run
 non-spin polarized calculation
 RMM-DIIS sequential band-by-band
 perform sub-space diagonalisation
    before iterative eigenvector-optimisation
 modified Broyden-mixing scheme, WC =      100.0
 initial mixing is a Kerker type mixing with AMIX =  0.4000 and BMIX =      1.0000
 Hartree-type preconditioning will be used
 using additional bands          112
 reciprocal scheme for non local part
 use partial core corrections
 calculate Harris-corrections to forces 
   (improved forces if not selfconsistent)
 use gradient corrections 
 use of overlap-Matrix (Vanderbilt PP)
 Gauss-broadening in eV      SIGMA  =   0.05


--------------------------------------------------------------------------------------------------------


  energy-cutoff  :      500.00
  volume of cell :     4238.07
      direct lattice vectors                 reciprocal lattice vectors
    16.026082000  0.000000000  0.000000000     0.062398283  0.000000000  0.000000000
     0.000000000 16.100000000  0.000000000     0.000000000  0.062111801  0.000000000
     0.000000000  0.000000000 16.425367000     0.000000000  0.000000000  0.060881440

  length of vectors
    16.026082000 16.100000000 16.425367000     0.062398283  0.062111801  0.060881440


 
 k-points in units of 2pi/SCALE and weight: Regular mesh centered at Gamma          
   0.00000000  0.00000000  0.00000000       1.000
 
 k-points in reciprocal lattice and weights: Regular mesh centered at Gamma          
   0.00000000  0.00000000  0.00000000       1.000
 
 position of ions in fractional coordinates (direct lattice) 
   0.74343186  0.83095031  0.17395350
   0.58727579  0.67162733  0.99809033
   0.67096250  0.63569565  0.18823506
   0.80880654  0.90896273  0.02017355
   0.58516735  0.78806211  0.28601248
   0.91391021  0.73108075  0.89937108
   0.23520721  0.03368845  0.04732174
   0.20849637  0.86010559  0.27854842
   0.09134173  0.02418950  0.34737854
   0.22522972  0.72558385  0.06940058
   0.10675098  0.67701242  0.89521896
   0.31142297  0.85451553  0.43930586
   0.34475363  0.50524286  0.61575489
   0.54586205  0.81247205  0.54037879
   0.69146033  0.86272671  0.76700265
   0.36130852  0.62285714  0.43276841
   0.71235752  0.52518758  0.74353894
   0.15763179  0.74612422  0.63513954
   0.00080844  0.90808075  0.86445557
   0.91976317  0.49720186  0.97152776
   0.17231910  0.46236211  0.67955255
   0.51599449  0.87488820  0.87900623
   0.01356788  0.63243478  0.73721945
   0.86052848  0.54820559  0.84978314
   0.39506100  0.50194037  0.86778579
   0.06832674  0.51500000  0.85921368
   0.26371199  0.60124099  0.80510834
   0.42778890  0.70319255  0.90542878
   0.05394581  0.30962671  0.68764369
   0.52210890  0.62944099  0.73270813
   0.26792013  0.24808385  0.03637739
   0.36695869  0.16667267  0.13794030
   0.47293531  0.07121863  0.02496273
   0.44191026  0.32167950  0.06384089
   0.62647876  0.38940745  0.17658418
   0.10151826  0.17747205  0.13902216
   0.81867795  0.11090994  0.49107518
   0.80168066  0.30552919  0.66769893
   0.60682892  0.01386087  0.91977245
   0.55986547  0.29949627  0.64902051
   0.85970482  0.17669441  0.79708417
   0.75629215  0.31447391  0.88315835
   0.47215907  0.23273727  0.36105251
   0.24753336  0.00619568  0.70645606
   0.34753909  0.08261180  0.32520247
   0.98128164  0.17254472  0.62395562
   0.40644432  0.04741851  0.51658328
   0.94313757  0.33956460  0.40470450
   0.38514716  0.43107702  0.39072917
   0.01260826  0.21847826  0.25544087
   0.19360003  0.25968696  0.30515970
   0.96251223  0.38384783  0.19430068
   0.12386371  0.46082236  0.29783079
   0.29966775  0.47363540  0.21661251
   0.78707946  0.60911739  0.29451823
   0.10471056  0.56335652  0.09675766
   0.80026422  0.49179379  0.10276787
   0.10241742  0.70211801  0.28362958
   0.96016606  0.66386957  0.03461603
   0.10842825  0.44555901  0.43797804
   0.43172498  0.02759398  0.75794958
   0.34685646  0.93254658  0.91328249
   0.38176455  0.86850311  0.63997961
   0.08007634  0.81512422  0.74092104
   0.21949782  0.84639130  0.87247974
   0.31276703  0.76324224  0.75082036
   0.05153792  0.82811801  0.47970131
   0.87091780  0.94039130  0.49515119
   0.90335866  0.78452174  0.27546660
   0.89925286  0.73532298  0.50952712
   0.78668011  0.78204969  0.40150762
   0.74320723  0.13032422  0.68015527
   0.99413568  0.32193727  0.85315598
   0.37125793  0.17032795  0.86522876
   0.12534317  0.15376584  0.82275787
   0.27579791  0.33384534  0.78858512
   0.10915644  0.85431056  0.06004189
   0.20581200  0.46334037  0.94861807
   0.57771513  0.41945839  0.42217869
   0.51120168  0.55722981  0.10798237
   0.71688139  0.24281366  0.29627405
   0.52860955  0.59688696  0.30627078
   0.42786877  0.71595031  0.24795976
   0.76427913  0.43597826  0.35644683
   0.81236949  0.03525435  0.28246310
   0.50971785  0.87928571  0.13831898
   0.65782766  0.69532919  0.40917137
   0.67782007  0.93214907  0.33272133
   0.48678086  0.02707286  0.25410817
   0.52033429  0.93796894  0.37974372
   0.38071189  0.24006708  0.73061381
   0.84419261  0.53922981  0.56049098
   0.56280381  0.09534907  0.73360918
   0.21551681  0.20486708  0.63300260
   0.57255292  0.11001118  0.47535681
   0.63607562  0.17924099  0.84546056
   0.69489224  0.92074534  0.57988720
   0.62928668  0.68481988  0.60677366
   0.35314308  0.29725404  0.22420991
   0.21034149  0.96632919  0.52789445
   0.94430442  0.54207267  0.40351610
   0.88931281  0.43347205  0.73346306
   0.51840244  0.33330932  0.58317053
   0.10852309  0.60061304  0.52037133
   0.60037943  0.10928758  0.24898744
   0.78833367  0.00316185  0.85319250
   0.92336355  0.85711801  0.13028567
   0.34154886  0.53612671  0.05500766
   0.83965626  0.25292671  0.17944196
   0.66754307  0.48194596  0.97658092
   0.27577420  0.66159627  0.25450756
   0.50517712  0.41644472  0.85790473
   0.69559110  0.05166789  0.56426015
   0.65541908  0.87823602  0.46194706
   0.60493950  0.88200000  0.65312391
   0.79411799  0.86857143  0.62896616
   0.68132061  0.67449068  0.71515601
   0.71922757  0.73415528  0.28662434
   0.49807869  0.95893789  0.63790964
   0.50183195  0.68934161  0.43147712
   0.43198331  0.39544720  0.18920247
   0.33385702  0.28597019  0.34978153
   0.11881819  0.13672360  0.26244102
   0.23172601  0.33841739  0.18190218
   0.24513165  0.97142236  0.40460405
   0.28305671  0.04608447  0.57512322
   0.27172892  0.83977019  0.57262100
   0.08492469  0.94547205  0.51892965
   0.90099377  0.45194224  0.43028932
   0.65742831  0.52151925  0.31189866
   0.07450854  0.59488758  0.39419089
   0.68216299  0.30747143  0.42812986
   0.87318909  0.40726894  0.85300986
   0.02785228  0.43461304  0.76132850
   0.86306809  0.56198447  0.70589595
   0.67985425  0.48111553  0.54815944
   0.56616770  0.58142484  0.58722645
   0.48253840  0.42531739  0.52369667
   0.42355455  0.23451366  0.58336292
   0.57451659  0.25554969  0.47517903
   0.02574079  0.69362733  0.57054250
   0.34791847  0.64049689  0.58430049
   0.06407617  0.50228634  0.57016686
   0.16953738  0.71542857  0.76846989
   0.46740432  0.07982733  0.38629883
   0.69205312  0.09640932  0.14348051
   0.68135181  0.08995776  0.35756400
   0.58347761  0.24529255  0.25670294
   0.74656426  0.09770124  0.93820735
   0.68205691  0.00133530  0.78997930
   0.79655776  0.89069565  0.89222968
   0.87624037  0.03640193  0.77453368
   0.83196879  0.93973292  0.15869174
   0.91970701  0.57685342  0.22728016
   0.98023959  0.90196273  0.03217822
   0.83780927  0.76719255  0.06469505
   0.36212719  0.57601925  0.28531052
   0.44180106  0.56228696  0.98481818
   0.23822042  0.61213913  0.97962499
   0.33022482  0.40921739  0.00887871
   0.85272246  0.19785342  0.29245435
   0.73164483  0.21210124  0.11316642
   0.95465005  0.26096273  0.12150596
   0.81313699  0.37112484  0.23262433
   0.63603818  0.50498758  0.10170488
   0.59463629  0.38082733  0.94687078
   0.78320453  0.40986398  0.00120346
   0.72315242  0.56957019  0.91948630
   0.16948622  0.58865093  0.21811324
   0.29349594  0.76557143  0.18829899
   0.45214607  0.78540373  0.36353952
   0.24704416  0.70951553  0.37204709
   0.50119050  0.28193292  0.78496267
   0.70876962  0.42579689  0.64771764
   0.50895222  0.09542236  0.86264739
   0.56067603  0.46923975  0.76333150
   0.53645988  0.70142857  0.17076696
   0.22607397  0.89009317  0.99883309
   0.42919473  0.72947205  0.64010137
   0.97230253  0.60765590  0.91268585
   0.24199864  0.47125342  0.80533360
   0.38521455  0.18213354  0.00188667
   0.72971672  0.24149627  0.75906980
   0.25418440  0.17292236  0.76971796
   0.05303299  0.35759814  0.34197836
   0.97311994  0.51647888  0.12105605
   0.33686711  0.90813043  0.77785781
   0.91372926  0.82624224  0.39788213
   0.00445320  0.21457950  0.79459412
   0.52932151  0.43882671  0.25104766
   0.57582633  0.91670807  0.23832649
   0.47099909  0.12832050  0.62397997
   0.53770160  0.94252174  0.00639444
   0.37575435  0.02781006  0.16193185
   0.24328217  0.44436025  0.43365119
   0.54078470  0.77018012  0.89170001
   0.38455937  0.64228571  0.79536731
   0.15523570  0.16241180  0.99435830
   0.86822219  0.20880621  0.56391312
   0.09363299  0.24923789  0.58008445
   0.08358250  0.72610559  0.06184398
   0.06882655  0.85209938  0.26855108
   0.09954273  0.94500621  0.77763864
   0.95371408  0.79966460  0.76630860
   0.06398382  0.42724720  0.96429504
   0.77866817  0.66404348  0.49656851
   0.90223549  0.01208410  0.38986831
   0.26270114  0.38407888  0.62897225
 
 position of ions in cartesian coordinates  (Angst):
  11.91430000 13.37830000  2.85725000
   9.41173000 10.81320000 16.39400000
  10.75290000 10.23470000  3.09183000
  12.96200000 14.63430000  0.33135800
   9.37794000 12.68780000  4.69786000
  14.64640000 11.77040000 14.77250000
   3.76945000  0.54238400  0.77727700
   3.34138000 13.84770000  4.57526000
   1.46385000  0.38945100  5.70582000
   3.60955000 11.68190000  1.13993000
   1.71080000 10.89990000 14.70430000
   4.99089000 13.75770000  7.21576000
   5.52505000  8.13441000 10.11400000
   8.74803000 13.08080000  8.87592000
  11.08140000 13.88990000 12.59830000
   5.79036000 10.02800000  7.10838000
  11.41630000  8.45552000 12.21290000
   2.52622000 12.01260000 10.43240000
   0.01295620 14.62010000 14.19900000
  14.74020000  8.00495000 15.95770000
   2.76160000  7.44403000 11.16190000
   8.26937000 14.08570000 14.43800000
   0.21744000 10.18220000 12.10910000
  13.79090000  8.82611000 13.95800000
   6.33128000  8.08124000 14.25370000
   1.09501000  8.29150000 14.11290000
   4.22627000  9.67998000 13.22420000
   6.85578000 11.32140000 14.87200000
   0.86454000  4.98499000 11.29480000
   8.36736000 10.13400000 12.03500000
   4.29371000  3.99415000  0.59751200
   5.88091000  2.68343000  2.26572000
   7.57930000  1.14662000  0.41002200
   7.08209000  5.17904000  1.04861000
  10.04000000  6.26946000  2.90046000
   1.62694000  2.85730000  2.28349000
  13.12020000  1.78565000  8.06609000
  12.84780000  4.91902000 10.96720000
   9.72509000  0.22316000 15.10760000
   8.97245000  4.82189000 10.66040000
  13.77770000  2.84478000 13.09240000
  12.12040000  5.06303000 14.50620000
   7.56686000  3.74707000  5.93042000
   3.96699000  0.09975040 11.60380000
   5.56969000  1.33005000  5.34157000
  15.72610000  2.77797000 10.24870000
   6.51371000  0.76343800  8.48507000
  15.11480000  5.46699000  6.64742000
   6.17240000  6.94034000  6.41787000
   0.20206100  3.51750000  4.19571000
   3.10265000  4.18096000  5.01236000
  15.42530000  6.17995000  3.19146000
   1.98505000  7.41924000  4.89198000
   4.80250000  7.62553000  3.55794000
  12.61380000  9.80679000  4.83757000
   1.67810000  9.07004000  1.58928000
  12.82510000  7.91788000  1.68800000
   1.64135000 11.30410000  4.65872000
  15.38770000 10.68830000  0.56858100
   1.73768000  7.17350000  7.19395000
   6.91886000  0.44426300 12.44960000
   5.55875000 15.01400000 15.00100000
   6.11819000 13.98290000 10.51190000
   1.28331000 13.12350000 12.16990000
   3.51769000 13.62690000 14.33080000
   5.01243000 12.28820000 12.33250000
   0.82595100 13.33270000  7.87927000
  13.95740000 15.14030000  8.13304000
  14.47730000 12.63080000  4.52464000
  14.41150000 11.83870000  8.36917000
  12.60740000 12.59100000  6.59491000
  11.91070000  2.09822000 11.17180000
  15.93210000  5.18319000 14.01340000
   5.94981000  2.74228000 14.21170000
   2.00876000  2.47563000 13.51410000
   4.41996000  5.37491000 12.95280000
   1.74935000 13.75440000  0.98621000
   3.29836000  7.45978000 15.58140000
   9.25851000  6.75328000  6.93444000
   8.19256000  8.97140000  1.77365000
  11.48880000  3.90930000  4.86641000
   8.47154000  9.60988000  5.03061000
   6.85706000 11.52680000  4.07283000
  12.24840000  7.01925000  5.85477000
  13.01910000  0.56759500  4.63956000
   8.16878000 14.15650000  2.27194000
  10.54240000 11.19480000  6.72079000
  10.86280000 15.00760000  5.46507000
   7.80119000  0.43587300  4.17382000
   8.33892000 15.10130000  6.23743000
   6.10132000  3.86508000 12.00060000
  13.52910000  8.68160000  9.20627000
   9.01954000  1.53512000 12.04980000
   3.45389000  3.29836000 10.39730000
   9.17578000  1.77118000  7.80791000
  10.19380000  2.88578000 13.88700000
  11.13640000 14.82400000  9.52486000
  10.08500000 11.02560000  9.96648000
   5.65950000  4.78579000  3.68273000
   3.37095000 15.55790000  8.67086000
  15.13350000  8.72737000  6.62790000
  14.25220000  6.97890000 12.04740000
   8.30796000  5.36628000  9.57879000
   1.73920000  9.66987000  8.54729000
   9.62173000  1.75953000  4.08971000
  12.63390000  0.05090580 14.01400000
  14.79790000 13.79960000  2.13999000
   5.47369000  8.63164000  0.90352100
  13.45640000  4.07212000  2.94740000
  10.69810000  7.75933000 16.04070000
   4.41958000 10.65170000  4.18038000
   8.09601000  6.70476000 14.09140000
  11.14760000  0.83185300  9.26818000
  10.50380000 14.13960000  7.58765000
   9.69481000 14.20020000 10.72780000
  12.72660000 13.98400000 10.33100000
  10.91890000 10.85930000 11.74670000
  11.52640000 11.81990000  4.70791000
   7.98225000 15.43890000 10.47790000
   8.04240000 11.09840000  7.08717000
   6.92300000  6.36670000  3.10772000
   5.35042000  4.60412000  5.74529000
   1.90419000  2.20125000  4.31069000
   3.71366000  5.44852000  2.98781000
   3.92850000 15.63990000  6.64577000
   4.53629000  0.74196000  9.44661000
   4.35475000 13.52030000  9.40551000
   1.36101000 15.22210000  8.52361000
  14.43940000  7.27627000  7.06766000
  10.53600000  8.39646000  5.12305000
   1.19408000  9.57769000  6.47473000
  10.93240000  4.95029000  7.03219000
  13.99380000  6.55703000 14.01100000
   0.44636300  6.99727000 12.50510000
  13.83160000  9.04795000 11.59460000
  10.89540000  7.74596000  9.00372000
   9.07345000  9.36094000  9.64541000
   7.73320000  6.84761000  8.60191000
   6.78792000  3.77567000  9.58195000
   9.20725000  4.11435000  7.80499000
   0.41252400 11.16740000  9.37137000
   5.57577000 10.31200000  9.59735000
   1.02689000  8.08681000  9.36520000
   2.71702000 11.51840000 12.62240000
   7.49066000  1.28522000  6.34510000
  11.09090000  1.55219000  2.35672000
  10.91940000  1.44832000  5.87312000
   9.35086000  3.94921000  4.21644000
  11.96450000  1.57299000 15.41040000
  10.93070000  0.02149840 12.97570000
  12.76570000 14.34020000 14.65520000
  14.04270000  0.58607100 12.72200000
  13.33320000 15.12970000  2.60657000
  14.73930000  9.28734000  3.73316000
  15.70940000 14.52160000  0.52853900
  13.42680000 12.35180000  1.06264000
   5.80348000  9.27391000  4.68633000
   7.08034000  9.05282000 16.17600000
   3.81774000  9.85544000 16.09070000
   5.29221000  6.58840000  0.14583600
  13.66580000  3.18544000  4.80367000
  11.72540000  3.41483000  1.85880000
  15.29930000  4.20150000  1.99578000
  13.03140000  5.97511000  3.82094000
  10.19320000  8.13030000  1.67054000
   9.52969000  6.13132000 15.55270000
  12.55170000  6.59881000  0.01976730
  11.58930000  9.17008000 15.10290000
   2.71620000  9.47728000  3.58259000
   4.70359000 12.32570000  3.09288000
   7.24613000 12.64500000  5.97127000
   3.95915000 11.42320000  6.11101000
   8.03212000  4.53912000 12.89330000
  11.35880000  6.85533000 10.63900000
   8.15651000  1.53630000 14.16930000
   8.98544000  7.55476000 12.53800000
   8.59735000 11.29300000  2.80491000
   3.62308000 14.33050000 16.40620000
   6.87831000 11.74450000 10.51390000
  15.58220000  9.78326000 14.99120000
   3.87829000  7.58718000 13.22790000
   6.17348000  2.93235000  0.03098930
  11.69450000  3.88809000 12.46800000
   4.07358000  2.78405000 12.64290000
   0.84991100  5.75733000  5.61712000
  15.59530000  8.31531000  1.98839000
   5.39866000 14.62090000 12.77660000
  14.64350000 13.30250000  6.53536000
   0.07136730  3.45473000 13.05150000
   8.48295000  7.06511000  4.12355000
   9.22824000 14.75900000  3.91460000
   7.54827000  2.06596000 10.24910000
   8.61725000 15.17460000  0.10503100
   6.02187000  0.44774200  2.65979000
   3.89886000  7.15420000  7.12288000
   8.66666000 12.39990000 14.64650000
   6.16298000 10.34080000 13.06420000
   2.48782000  2.61483000 16.33270000
  13.91420000  3.36178000  9.26248000
   1.50057000  4.01273000  9.52810000
   1.33950000 11.69030000  1.01581000
   1.10302000 13.71880000  4.41105000
   1.59528000 15.21460000 12.77300000
  15.28430000 12.87460000 12.58690000
   1.02541000  6.87868000 15.83890000
  12.47900000 10.69110000  8.15632000
  14.45930000  0.19455400  6.40373000
   4.21007000  6.18367000 10.33110000
 


--------------------------------------------------------------------------------------------------------


 k-point  1 :   0.0000 0.0000 0.0000  plane waves:  107615

 maximum and minimum number of plane-waves per node :     13456    13445

 maximum number of plane-waves:    107615
 maximum index in each direction: 
   IXMAX=   29   IYMAX=   29   IZMAX=   29
   IXMIN=  -29   IYMIN=  -29   IZMIN=  -29


 parallel 3D FFT for wavefunctions:
    minimum data exchange during FFTs selected (reduces bandwidth)
 parallel 3D FFT for charge:
    minimum data exchange during FFTs selected (reduces bandwidth)


 total amount of memory used by VASP MPI-rank0   111673. kBytes
=======================================================================

   base      :      30000. kBytes
   nonl-proj :      48226. kBytes
   fftplans  :       6264. kBytes
   grid      :      10964. kBytes
   one-center:         79. kBytes
   wavefun   :      16140. kBytes
 
     INWAV:  cpu time    0.0000: real time    0.0002
 Broyden mixing: mesh for mixing (old mesh)
   NGX = 59   NGY = 59   NGZ = 59
  (NGX  =180   NGY  =180   NGZ  =180)
  gives a total of 205379 points

 initial charge density was supplied:
 charge density of overlapping atoms calculated
 number of electron     960.0000000 magnetization 
 keeping initial charge density in first step


--------------------------------------------------------------------------------------------------------


 Maximum index for augmentation-charges          363 (set IRDMAX)


--------------------------------------------------------------------------------------------------------


 First call to EWALD:  gamma=   0.110
 Maximum number of real-space cells 3x 3x 3
 Maximum number of reciprocal cells 3x 3x 3

    FEWALD:  cpu time    0.0075: real time    0.0075


--------------------------------------- Iteration      1(   1)  ---------------------------------------


    POTLOK:  cpu time    0.0850: real time    0.0861
    SETDIJ:  cpu time    0.0077: real time    0.0079
    EDDIAG:  cpu time    0.9638: real time    0.9672
  RMM-DIIS:  cpu time    5.4736: real time    5.4768
    ORTHCH:  cpu time    0.2649: real time    0.2652
       DOS:  cpu time    0.0006: real time    0.0007
    --------------------------------------------
      LOOP:  cpu time    6.7957: real time    6.8038

 eigenvalue-minimisations  :   592
 total energy-change (2. order) :-0.3834548E+04  (-0.4709859E+05)
 number of electron     960.0000000 magnetization 
 augmentation part      960.0000000 magnetization 

 Free energy of the ion-electron system (eV)
  ---------------------------------------------------
  alpha Z        PSCENC =       804.77846877
  Ewald energy   TEWEN  =    -29485.80287541
  -Hartree energ DENC   =    -12690.36478440
  -exchange      EXHF   =         0.00000000
  -V(xc)+E(xc)   XCENC  =      2536.13931108
  PAW double counting   =     32496.41603574   -33591.34861692
  entropy T*S    EENTRO =        -0.04980284
  eigenvalues    EBANDS =    -14888.30105354
  atomic energy  EATOM  =     50983.98519967
  Solvation  Ediel_sol  =         0.00000000
  ---------------------------------------------------
  free energy    TOTEN  =     -3834.54811784 eV

  energy without entropy =    -3834.49831501  energy(sigma->0) =    -3834.52321643


--------------------------------------------------------------------------------------------------------




--------------------------------------- Iteration      1(   2)  ---------------------------------------


    EDDIAG:  cpu time    0.9555: real time    0.9576
  RMM-DIIS:  cpu time    5.4734: real time    5.4764
    ORTHCH:  cpu time    0.2649: real time    0.2656
       DOS:  cpu time    0.0005: real time    0.0005
    --------------------------------------------
      LOOP:  cpu time    6.6944: real time    6.7002

 eigenvalue-minimisations  :   592
 total energy-change (2. order) : 0.6239210E+04  (-0.7386531E+04)
 number of electron     960.0000000 magnetization 
 augmentation part      960.0000000 magnetization 

 Free energy of the ion-electron system (eV)
  ---------------------------------------------------
  alpha Z        PSCENC =       804.77846877
  Ewald energy   TEWEN  =    -29485.80287541
  -Hartree energ DENC   =    -12690.36478440
  -exchange      EXHF   =         0.00000000
  -V(xc)+E(xc)   XCENC  =      2536.13931108
  PAW double counting   =     32496.41603574   -33591.34861692
  entropy T*S    EENTRO =        -0.05690434
  eigenvalues    EBANDS =     -8649.08375834
  atomic energy  EATOM  =     50983.98519967
  Solvation  Ediel_sol  =         0.00000000
  ---------------------------------------------------
  free energy    TOTEN  =      2404.66207585 eV

  energy without entropy =     2404.71898019  energy(sigma->0) =     2404.69052802


--------------------------------------------------------------------------------------------------------




--------------------------------------- Iteration      1(   3)  ---------------------------------------


    EDDIAG:  cpu time    1.0342: real time    1.0363
  RMM-DIIS:  cpu time    5.5223: real time    5.5244
    ORTHCH:  cpu time    0.2661: real time    0.2663
       DOS:  cpu time    0.0006: real time    0.0006
    --------------------------------------------
      LOOP:  cpu time    6.8232: real time    6.8275

 eigenvalue-minimisations  :   592
 total energy-change (2. order) :-0.1589152E+04  (-0.2346896E+04)
 number of electron     960.0000000 magnetization 
 augmentation part      960.0000000 magnetization 

 Free energy of the ion-electron system (eV)
  ---------------------------------------------------
  alpha Z        PSCENC =       804.77846877
  Ewald energy   TEWEN  =    -29485.80287541
  -Hartree energ DENC   =    -12690.36478440
  -exchange      EXHF   =         0.00000000
  -V(xc)+E(xc)   XCENC  =      2536.13931108
  PAW double counting   =     32496.41603574   -33591.34861692
  entropy T*S    EENTRO =        -0.09413978
  eigenvalues    EBANDS =    -10238.19803649
  atomic energy  EATOM  =     50983.98519967
  Solvation  Ediel_sol  =         0.00000000
  ---------------------------------------------------
  free energy    TOTEN  =       815.51056226 eV

  energy without entropy =      815.60470204  energy(sigma->0) =      815.55763215


--------------------------------------------------------------------------------------------------------




--------------------------------------- Iteration      1(   4)  ---------------------------------------


    EDDIAG:  cpu time    0.9620: real time    0.9626
  RMM-DIIS:  cpu time    5.4987: real time    5.5007
    ORTHCH:  cpu time    0.2672: real time    0.2672
       DOS:  cpu time    0.0005: real time    0.0005
    --------------------------------------------
      LOOP:  cpu time    6.7283: real time    6.7310

 eigenvalue-minimisations  :   592
 total energy-change (2. order) :-0.8291787E+03  (-0.8327053E+03)
 number of electron     960.0000000 magnetization 
 augmentation part      960.0000000 magnetization 

 Free energy of the ion-electron system (eV)
  ---------------------------------------------------
  alpha Z        PSCENC =       804.77846877
  Ewald energy   TEWEN  =    -29485.80287541
  -Hartree energ DENC   =    -12690.36478440
  -exchange      EXHF   =         0.00000000
  -V(xc)+E(xc)   XCENC  =      2536.13931108
  PAW double counting   =     32496.41603574   -33591.34861692
  entropy T*S    EENTRO =        -0.00727797
  eigenvalues    EBANDS =    -11067.46358107
  atomic energy  EATOM  =     50983.98519967
  Solvation  Ediel_sol  =         0.00000000
  ---------------------------------------------------
  free energy    TOTEN  =       -13.66812050 eV

  energy without entropy =      -13.66084254  energy(sigma->0) =      -13.66448152


--------------------------------------------------------------------------------------------------------




--------------------------------------- Iteration      1(   5)  ---------------------------------------


    EDDIAG:  cpu time    0.9664: real time    0.9670
  RMM-DIIS:  cpu time    5.4738: real time    5.4759
    ORTHCH:  cpu time    0.2650: real time    0.2652
       DOS:  cpu time    0.0004: real time    0.0004
    --------------------------------------------
      LOOP:  cpu time    6.7057: real time    6.7086

 eigenvalue-minimisations  :   592
 total energy-change (2. order) :-0.3616170E+03  (-0.3305739E+03)
 number of electron     960.0000000 magnetization 
 augmentation part      960.0000000 magnetization 

 Free energy of the ion-electron system (eV)
  ---------------------------------------------------
  alpha Z        PSCENC =       804.77846877
  Ewald energy   TEWEN  =    -29485.80287541
  -Hartree energ DENC   =    -12690.36478440
  -exchange      EXHF   =         0.00000000
  -V(xc)+E(xc)   XCENC  =      2536.13931108
  PAW double counting   =     32496.41603574   -33591.34861692
  entropy T*S    EENTRO =        -0.00010155
  eigenvalues    EBANDS =    -11429.08775176
  atomic energy  EATOM  =     50983.98519967
  Solvation  Ediel_sol  =         0.00000000
  ---------------------------------------------------
  free energy    TOTEN  =      -375.28511477 eV

  energy without entropy =     -375.28501323  energy(sigma->0) =     -375.28506400


--------------------------------------------------------------------------------------------------------




--------------------------------------- Iteration      1(   6)  ---------------------------------------


    EDDIAG:  cpu time    0.9763: real time    0.9770
  RMM-DIIS:  cpu time    5.5160: real time    5.5190
    ORTHCH:  cpu time    0.2668: real time    0.2668
       DOS:  cpu time    0.0003: real time    0.0003
    --------------------------------------------
      LOOP:  cpu time    6.7595: real time    6.7631

 eigenvalue-minimisations  :   592
 total energy-change (2. order) :-0.1553580E+03  (-0.1415046E+03)
 number of electron     960.0000000 magnetization 
 augmentation part      960.0000000 magnetization 

 Free energy of the ion-electron system (eV)
  ---------------------------------------------------
  alpha Z        PSCENC =       804.77846877
  Ewald energy   TEWEN  =    -29485.80287541
  -Hartree energ DENC   =    -12690.36478440
  -exchange      EXHF   =         0.00000000
  -V(xc)+E(xc)   XCENC  =      2536.13931108
  PAW double counting   =     32496.41603574   -33591.34861692
  entropy T*S    EENTRO =        -0.00000000
  eigenvalues    EBANDS =    -11584.44581411
  atomic energy  EATOM  =     50983.98519967
  Solvation  Ediel_sol  =         0.00000000
  ---------------------------------------------------
  free energy    TOTEN  =      -530.64307558 eV

  energy without entropy =     -530.64307558  energy(sigma->0) =     -530.64307558


--------------------------------------------------------------------------------------------------------




--------------------------------------- Iteration      1(   7)  ---------------------------------------


    EDDIAG:  cpu time    0.9430: real time    0.9440
  RMM-DIIS:  cpu time    5.5230: real time    5.5273
    ORTHCH:  cpu time    0.2645: real time    0.2648
       DOS:  cpu time    0.0003: real time    0.0003
    --------------------------------------------
      LOOP:  cpu time    6.7308: real time    6.7364

 eigenvalue-minimisations  :   592
 total energy-change (2. order) :-0.7409912E+02  (-0.7078248E+02)
 number of electron     960.0000000 magnetization 
 augmentation part      960.0000000 magnetization 

 Free energy of the ion-electron system (eV)
  ---------------------------------------------------
  alpha Z        PSCENC =       804.77846877
  Ewald energy   TEWEN  =    -29485.80287541
  -Hartree energ DENC   =    -12690.36478440
  -exchange      EXHF   =         0.00000000
  -V(xc)+E(xc)   XCENC  =      2536.13931108
  PAW double counting   =     32496.41603574   -33591.34861692
  entropy T*S    EENTRO =        -0.00000000
  eigenvalues    EBANDS =    -11658.54493352
  atomic energy  EATOM  =     50983.98519967
  Solvation  Ediel_sol  =         0.00000000
  ---------------------------------------------------
  free energy    TOTEN  =      -604.74219499 eV

  energy without entropy =     -604.74219499  energy(sigma->0) =     -604.74219499


--------------------------------------------------------------------------------------------------------




--------------------------------------- Iteration      1(   8)  ---------------------------------------


    EDDIAG:  cpu time    0.9409: real time    0.9416
  RMM-DIIS:  cpu time    5.4863: real time    5.4881
    ORTHCH:  cpu time    0.2646: real time    0.2647
       DOS:  cpu time    0.0003: real time    0.0003
    --------------------------------------------
      LOOP:  cpu time    6.6920: real time    6.6946

 eigenvalue-minimisations  :   592
 total energy-change (2. order) :-0.4322441E+02  (-0.4077300E+02)
 number of electron     960.0000000 magnetization 
 augmentation part      960.0000000 magnetization 

 Free energy of the ion-electron system (eV)
  ---------------------------------------------------
  alpha Z        PSCENC =       804.77846877
  Ewald energy   TEWEN  =    -29485.80287541
  -Hartree energ DENC   =    -12690.36478440
  -exchange      EXHF   =         0.00000000
  -V(xc)+E(xc)   XCENC  =      2536.13931108
  PAW double counting   =     32496.41603574   -33591.34861692
  entropy T*S    EENTRO =        -0.00000000
  eigenvalues    EBANDS =    -11701.76933973
  atomic energy  EATOM  =     50983.98519967
  Solvation  Ediel_sol  =         0.00000000
  ---------------------------------------------------
  free energy    TOTEN  =      -647.96660120 eV

  energy without entropy =     -647.96660120  energy(sigma->0) =     -647.96660120


--------------------------------------------------------------------------------------------------------




--------------------------------------- Iteration      1(   9)  ---------------------------------------


    EDDIAG:  cpu time    0.9367: real time    0.9373
  RMM-DIIS:  cpu time   19.5789: real time   19.5852
    ORTHCH:  cpu time    0.2588: real time    0.2588
       DOS:  cpu time    0.0003: real time    0.0003
    --------------------------------------------
      LOOP:  cpu time   20.7746: real time   20.7816

 eigenvalue-minimisations  :  2143
 total energy-change (2. order) :-0.1130171E+03  (-0.1122535E+03)
 number of electron     960.0000000 magnetization 
 augmentation part      960.0000000 magnetization 

 Free energy of the ion-electron system (eV)
  ---------------------------------------------------
  alpha Z        PSCENC =       804.77846877
  Ewald energy   TEWEN  =    -29485.80287541
  -Hartree energ DENC   =    -12690.36478440
  -exchange      EXHF   =         0.00000000
  -V(xc)+E(xc)   XCENC  =      2536.13931108
  PAW double counting   =     32496.41603574   -33591.34861692
  entropy T*S    EENTRO =        -0.00000000
  eigenvalues    EBANDS =    -11814.78641124
  atomic energy  EATOM  =     50983.98519967
  Solvation  Ediel_sol  =         0.00000000
  ---------------------------------------------------
  free energy    TOTEN  =      -760.98367271 eV

  energy without entropy =     -760.98367271  energy(sigma->0) =     -760.98367271


--------------------------------------------------------------------------------------------------------




--------------------------------------- Iteration      1(  10)  ---------------------------------------


    EDDIAG:  cpu time    0.9402: real time    0.9407
  RMM-DIIS:  cpu time   19.4986: real time   19.5051
    ORTHCH:  cpu time    0.2636: real time    0.2636
       DOS:  cpu time    0.0003: real time    0.0003
    --------------------------------------------
      LOOP:  cpu time   20.7028: real time   20.7097

 eigenvalue-minimisations  :  2137
 total energy-change (2. order) :-0.5535161E+02  (-0.5567817E+02)
 number of electron     960.0000000 magnetization 
 augmentation part      960.0000000 magnetization 

 Free energy of the ion-electron system (eV)
  ---------------------------------------------------
  alpha Z        PSCENC =       804.77846877
  Ewald energy   TEWEN  =    -29485.80287541
  -Hartree energ DENC   =    -12690.36478440
  -exchange      EXHF   =         0.00000000
  -V(xc)+E(xc)   XCENC  =      2536.13931108
  PAW double counting   =     32496.41603574   -33591.34861692
  entropy T*S    EENTRO =        -0.00000000
  eigenvalues    EBANDS =    -11870.13801869
  atomic energy  EATOM  =     50983.98519967
  Solvation  Ediel_sol  =         0.00000000
  ---------------------------------------------------
  free energy    TOTEN  =      -816.33528016 eV

  energy without entropy =     -816.33528016  energy(sigma->0) =     -816.33528016


--------------------------------------------------------------------------------------------------------




--------------------------------------- Iteration      1(  11)  ---------------------------------------


    EDDIAG:  cpu time    0.9450: real time    0.9459
  RMM-DIIS:  cpu time   18.8178: real time   18.8245
    ORTHCH:  cpu time    0.2591: real time    0.2591
       DOS:  cpu time    0.0003: real time    0.0003
    --------------------------------------------
      LOOP:  cpu time   20.0223: real time   20.0299

 eigenvalue-minimisations  :  2067
 total energy-change (2. order) :-0.1297765E+02  (-0.1343967E+02)
 number of electron     960.0000000 magnetization 
 augmentation part      960.0000000 magnetization 

 Free energy of the ion-electron system (eV)
  ---------------------------------------------------
  alpha Z        PSCENC =       804.77846877
  Ewald energy   TEWEN  =    -29485.80287541
  -Hartree energ DENC   =    -12690.36478440
  -exchange      EXHF   =         0.00000000
  -V(xc)+E(xc)   XCENC  =      2536.13931108
  PAW double counting   =     32496.41603574   -33591.34861692
  entropy T*S    EENTRO =        -0.00000000
  eigenvalues    EBANDS =    -11883.11566874
  atomic energy  EATOM  =     50983.98519967
  Solvation  Ediel_sol  =         0.00000000
  ---------------------------------------------------
  free energy    TOTEN  =      -829.31293021 eV

  energy without entropy =     -829.31293021  energy(sigma->0) =     -829.31293021


--------------------------------------------------------------------------------------------------------




--------------------------------------- Iteration      1(  12)  ---------------------------------------


    EDDIAG:  cpu time    0.9409: real time    0.9419
  RMM-DIIS:  cpu time   18.7289: real time   18.7624
    ORTHCH:  cpu time    0.2662: real time    0.2663
       DOS:  cpu time    0.0003: real time    0.0003
    CHARGE:  cpu time    0.1935: real time    0.1936
    MIXING:  cpu time    0.0023: real time    0.0027
    --------------------------------------------
      LOOP:  cpu time   20.1321: real time   20.1673

 eigenvalue-minimisations  :  2056
 total energy-change (2. order) :-0.8974381E+01  (-0.8978662E+01)
 number of electron     959.9999710 magnetization 
 augmentation part        6.3650007 magnetization 

 Broyden mixing:
  rms(total) = 0.72929E+01    rms(broyden)= 0.72900E+01
  rms(prec ) = 0.76265E+01
  weight for this iteration     100.00

 Free energy of the ion-electron system (eV)
  ---------------------------------------------------
  alpha Z        PSCENC =       804.77846877
  Ewald energy   TEWEN  =    -29485.80287541
  -Hartree energ DENC   =    -12690.36478440
  -exchange      EXHF   =         0.00000000
  -V(xc)+E(xc)   XCENC  =      2536.13931108
  PAW double counting   =     32496.41603574   -33591.34861692
  entropy T*S    EENTRO =        -0.00000000
  eigenvalues    EBANDS =    -11892.09004982
  atomic energy  EATOM  =     50983.98519967
  Solvation  Ediel_sol  =         0.00000000
  ---------------------------------------------------
  free energy    TOTEN  =      -838.28731129 eV

  energy without entropy =     -838.28731129  energy(sigma->0) =     -838.28731129


--------------------------------------------------------------------------------------------------------




--------------------------------------- Iteration      1(  13)  ---------------------------------------


    POTLOK:  cpu time    0.0812: real time    0.0814
    SETDIJ:  cpu time    0.0070: real time    0.0070
    EDDIAG:  cpu time    0.9735: real time    0.9740
  RMM-DIIS:  cpu time   14.4049: real time   14.4098
    ORTHCH:  cpu time    0.2645: real time    0.2651
       DOS:  cpu time    0.0004: real time    0.0004
    CHARGE:  cpu time    0.1945: real time    0.1947
    MIXING:  cpu time    0.0021: real time    0.0022
    --------------------------------------------
      LOOP:  cpu time   15.9281: real time   15.9347

 eigenvalue-minimisations  :  1591
 total energy-change (2. order) : 0.4058634E+02  (-0.1048185E+02)
 number of electron     959.9999719 magnetization 
 augmentation part        6.9214249 magnetization 

 Broyden mixing:
  rms(total) = 0.48015E+01    rms(broyden)= 0.48015E+01
  rms(prec ) = 0.49178E+01
  weight for this iteration     100.00

 eigenvalues of (default mixing * dielectric matrix)
  average eigenvalue GAMMA=   2.1754
  2.1754

 Free energy of the ion-electron system (eV)
  ---------------------------------------------------
  alpha Z        PSCENC =       804.77846877
  Ewald energy   TEWEN  =    -29485.80287541
  -Hartree energ DENC   =    -13012.57543062
  -exchange      EXHF   =         0.00000000
  -V(xc)+E(xc)   XCENC  =      2559.30574433
  PAW double counting   =     45563.40307781   -46681.34327337
  entropy T*S    EENTRO =        -0.00000000
  eigenvalues    EBANDS =    -11529.45188307
  atomic energy  EATOM  =     50983.98519967
  Solvation  Ediel_sol  =         0.00000000
  ---------------------------------------------------
  free energy    TOTEN  =      -797.70097191 eV

  energy without entropy =     -797.70097191  energy(sigma->0) =     -797.70097191


--------------------------------------------------------------------------------------------------------




--------------------------------------- Iteration      1(  14)  ---------------------------------------


    POTLOK:  cpu time    0.0812: real time    0.0816
    SETDIJ:  cpu time    0.0069: real time    0.0069
    EDDIAG:  cpu time    0.9404: real time    0.9431
  RMM-DIIS:  cpu time   15.3862: real time   15.3963
    ORTHCH:  cpu time    0.2585: real time    0.2587
       DOS:  cpu time    0.0007: real time    0.0007
    CHARGE:  cpu time    0.1945: real time    0.1945
    MIXING:  cpu time    0.0023: real time    0.0023
    --------------------------------------------
      LOOP:  cpu time   16.8706: real time   16.8841

 eigenvalue-minimisations  :  1681
 total energy-change (2. order) : 0.3484924E+01  (-0.8865641E+01)
 number of electron     959.9999726 magnetization 
 augmentation part        6.4800310 magnetization 

 Broyden mixing:
  rms(total) = 0.15055E+01    rms(broyden)= 0.15053E+01
  rms(prec ) = 0.15675E+01
  weight for this iteration     100.00

 eigenvalues of (default mixing * dielectric matrix)
  average eigenvalue GAMMA=   1.9267
  1.4535  2.3999

 Free energy of the ion-electron system (eV)
  ---------------------------------------------------
  alpha Z        PSCENC =       804.77846877
  Ewald energy   TEWEN  =    -29485.80287541
  -Hartree energ DENC   =    -13318.87776825
  -exchange      EXHF   =         0.00000000
  -V(xc)+E(xc)   XCENC  =      2582.34525940
  PAW double counting   =     71344.52201422   -72487.89970108
  entropy T*S    EENTRO =        -0.03671647
  eigenvalues    EBANDS =    -11217.22992848
  atomic energy  EATOM  =     50983.98519967
  Solvation  Ediel_sol  =         0.00000000
  ---------------------------------------------------
  free energy    TOTEN  =      -794.21604764 eV

  energy without entropy =     -794.17933117  energy(sigma->0) =     -794.19768941


--------------------------------------------------------------------------------------------------------




--------------------------------------- Iteration      1(  15)  ---------------------------------------


    POTLOK:  cpu time    0.0810: real time    0.0812
    SETDIJ:  cpu time    0.0069: real time    0.0069
    EDDIAG:  cpu time    0.9971: real time    0.9975
  RMM-DIIS:  cpu time   17.3222: real time   17.3312
    ORTHCH:  cpu time    0.2633: real time    0.2633
       DOS:  cpu time    0.0006: real time    0.0006
    CHARGE:  cpu time    0.1937: real time    0.1937
    MIXING:  cpu time    0.0024: real time    0.0024
    --------------------------------------------
      LOOP:  cpu time   18.8671: real time   18.8766

 eigenvalue-minimisations  :  1904
 total energy-change (2. order) :-0.1941047E+00  (-0.1912001E+01)
 number of electron     959.9999729 magnetization 
 augmentation part        5.0838745 magnetization 

 Broyden mixing:
  rms(total) = 0.44512E+00    rms(broyden)= 0.44444E+00
  rms(prec ) = 0.50229E+00
  weight for this iteration     100.00

 eigenvalues of (default mixing * dielectric matrix)
  average eigenvalue GAMMA=   1.5221
  2.3922  1.3212  0.8530

 Free energy of the ion-electron system (eV)
  ---------------------------------------------------
  alpha Z        PSCENC =       804.77846877
  Ewald energy   TEWEN  =    -29485.80287541
  -Hartree energ DENC   =    -13306.05949678
  -exchange      EXHF   =         0.00000000
  -V(xc)+E(xc)   XCENC  =      2581.96139993
  PAW double counting   =     78590.09186315   -79738.59708239
  entropy T*S    EENTRO =        -0.00002471
  eigenvalues    EBANDS =    -11224.76760452
  atomic energy  EATOM  =     50983.98519967
[...]
      9.62173      1.75953      4.08971         1.546115      2.020601      0.869089
     12.63390      0.05091     14.01400        -0.738845      3.396411     -0.008633
     14.79790     13.79960      2.13999        -0.460264     -2.147284      0.208468
      5.47369      8.63164      0.90352        -2.051446     -0.692640     -0.972267
     13.45640      4.07212      2.94740         1.462536      0.660003      1.927452
     10.69810      7.75933     16.04070         2.532783     -2.295045      3.230116
      4.41958     10.65170      4.18038        -2.385411     -0.022069      2.324844
      8.09601      6.70476     14.09140        -0.440411     -2.232836     -1.925618
     11.14760      0.83185      9.26818         0.092592     -0.703660      0.178920
     10.50380     14.13960      7.58765         0.185586     -0.317430      0.592334
      9.69481     14.20020     10.72780        -2.613845     -0.440928      1.266600
     12.72660     13.98400     10.33100         0.179233      0.025598     -0.277463
     10.91890     10.85930     11.74670         0.357340      0.339941      1.265471
     11.52640     11.81990      4.70791         0.786454      0.572591     -0.110621
      7.98225     15.43890     10.47790         0.920552     -0.307049     -0.171514
      8.04240     11.09840      7.08717         0.595824     -0.612101      0.259341
      6.92300      6.36670      3.10772        -1.570593      0.288646     -1.516008
      5.35042      4.60412      5.74529         0.935120      0.106741     -0.068084
      1.90419      2.20125      4.31069         0.993281     -0.767467      0.511207
      3.71366      5.44852      2.98781         0.662976     -0.059271      0.228723
      3.92850     15.63990      6.64577        -0.113448      0.306862     -0.797884
      4.53629      0.74196      9.44661         0.224613      2.828463      2.168299
      4.35475     13.52030      9.40551        -2.130848      1.111915     -1.027920
      1.36101     15.22210      8.52361         0.559116      2.350343      1.196816
     14.43940      7.27627      7.06766        -6.492689    -11.337256      4.962816
     10.53600      8.39646      5.12305         0.734332      0.442741      0.231848
      1.19408      9.57769      6.47473        -0.055824     -1.193648     -0.463963
     10.93240      4.95029      7.03219         0.212386      0.069011      0.573934
     13.99380      6.55703     14.01100        -1.739271     -0.037567      0.582905
      0.44636      6.99727     12.50510        -0.156753      0.059309     -2.004877
     13.83160      9.04795     11.59460         0.081358     -0.309546      0.430952
     10.89540      7.74596      9.00372        -0.108406      1.472892     -1.298809
      9.07345      9.36094      9.64541        -0.269392     -1.518061     -0.901688
      7.73320      6.84761      8.60191        -2.973521      3.504250     -2.188713
      6.78792      3.77567      9.58195        -1.433936      1.504520     -0.467536
      9.20725      4.11435      7.80499         0.567330      0.394778      0.127097
      0.41252     11.16740      9.37137         0.364154      0.837922      0.359686
      5.57577     10.31200      9.59735         0.306625      1.145101      0.211492
      1.02689      8.08681      9.36520        -0.863362     -2.571269      1.144000
      2.71702     11.51840     12.62240         0.192270     -0.407365      0.849629
      7.49066      1.28522      6.34510        -0.266095     -0.485994      0.426330
     11.09090      1.55219      2.35672        -0.111556      0.051447      0.484448
     10.91940      1.44832      5.87312        -0.507564     -0.625590     -1.140162
      9.35086      3.94921      4.21644        -0.791315     -1.136282     -0.811365
     11.96450      1.57299     15.41040         0.930668     -0.892651     -0.040401
     10.93070      0.02150     12.97570        -2.100100     -0.162204     -1.450169
     12.76570     14.34020     14.65520         0.249474     -2.587555      0.167918
     14.04270      0.58607     12.72200         0.879536     -0.102684     -0.117264
     13.33320     15.12970      2.60657        -1.025059      1.590281      0.787463
     14.73930      9.28734      3.73316         0.476987     -0.043204      0.147193
     15.70940     14.52160      0.52854         0.804273      1.473121     -1.520825
     13.42680     12.35180      1.06264         0.049779     -0.678961      0.151608
      5.80348      9.27391      4.68633         1.509952      0.126984     -0.197760
      7.08034      9.05282     16.17600         1.995256      1.343247     -0.484301
      3.81774      9.85544     16.09070         0.754516     -0.798145      0.899234
      5.29221      6.58840      0.14584        -0.132740      0.611868     -0.039610
     13.66580      3.18544      4.80367         0.557560     -1.124025     -0.795822
     11.72540      3.41483      1.85880        -0.123944      0.329774     -0.377790
     15.29930      4.20150      1.99578        -0.806747     -0.289889     -0.379123
     13.03140      5.97511      3.82094        -0.394954      0.377723     -1.507497
     10.19320      8.13030      1.67054         1.085036      0.782973     -1.418523
      9.52969      6.13132     15.55270         0.037197     -0.983339     -0.190239
     12.55170      6.59881      0.01977        -1.462091     -0.819411      0.220566
     11.58930      9.17008     15.10290        -0.776183      2.624271     -1.488222
      2.71620      9.47728      3.58259         1.049087      0.352692      0.011238
      4.70359     12.32570      3.09288         0.501640     -0.090574     -0.644444
      7.24613     12.64500      5.97127        -0.134904      1.402935      0.384933
      3.95915     11.42320      6.11101        -0.621512      0.021197     -0.762872
      8.03212      4.53912     12.89330        -0.054799      1.137157      1.212410
     11.35880      6.85533     10.63900        -0.301190     -2.034389      0.797206
      8.15651      1.53630     14.16930        -0.807826     -0.509527     -0.413874
      8.98544      7.55476     12.53800         0.436732      1.646543     -0.315096
      8.59735     11.29300      2.80491         0.461403     -0.568518     -1.158359
      3.62308     14.33050     16.40620         1.152237      0.384689      0.211708
      6.87831     11.74450     10.51390         0.181730     -0.551226     -0.973219
     15.58220      9.78326     14.99120         0.439685      0.816011     -0.975795
      3.87829      7.58718     13.22790        -0.147560     -0.560567      0.589713
      6.17348      2.93235      0.03099         0.140011      0.554311      1.076213
     11.69450      3.88809     12.46800        -0.323615     -0.030006      0.368723
      4.07358      2.78405     12.64290         1.044331      0.404819     -0.309210
      0.84991      5.75733      5.61712         0.454136     -0.725267     -1.196174
     15.59530      8.31531      1.98839        -0.966707      0.162252      0.686632
      5.39866     14.62090     12.77660         0.294945     -0.221614      0.552683
     14.64350     13.30250      6.53536         0.614900     -0.347294      1.954275
      0.07137      3.45473     13.05150        -0.336390     -1.670330     -1.964585
      8.48295      7.06511      4.12355         0.399262      1.185825      2.674167
      9.22824     14.75900      3.91460         0.879770      0.953097      1.083726
      7.54827      2.06596     10.24910         0.921648     -1.393208      0.200374
      8.61725     15.17460      0.10503        -0.561439     -0.711402      0.657198
      6.02187      0.44774      2.65979        -0.128278     -0.041903      0.333385
      3.89886      7.15420      7.12288         0.781066      0.653432     -0.335915
      8.66666     12.39990     14.64650         1.957227     -5.421885      0.609197
      6.16298     10.34080     13.06420         1.101361     -0.097619      0.389862
      2.48782      2.61483     16.33270         0.090528     -0.222720      0.656558
     13.91420      3.36178      9.26248        -0.338777      0.615350      0.151597
      1.50057      4.01273      9.52810         0.022767     -0.471331     -0.758968
      1.33950     11.69030      1.01581        -0.130596     -1.090786      0.140110
      1.10302     13.71880      4.41105         0.851731     -0.189157      0.003295
      1.59528     15.21460     12.77300         0.802178      0.544651     -0.023238
     15.28430     12.87460     12.58690        -0.899684     -0.648346      0.679333
      1.02541      6.87868     15.83890         0.210383     -0.321180      0.782493
     12.47900     10.69110      8.15632        -0.153830     -0.082182     -0.023121
     14.45930      0.19455      6.40373        -0.103616      1.613639      0.312959
      4.21007      6.18367     10.33110         0.924060     -0.952085     -0.346731
 -----------------------------------------------------------------------------------
    total drift:                               -0.008381      0.030804      0.019726


--------------------------------------------------------------------------------------------------------



  FREE ENERGIE OF THE ION-ELECTRON SYSTEM (eV)
  ---------------------------------------------------
  free  energy   TOTEN  =      -796.25331929 eV

  energy  without entropy=     -796.25106411  energy(sigma->0) =     -796.25219170
 


--------------------------------------------------------------------------------------------------------


    POTLOK:  cpu time    0.0930: real time    0.0931


--------------------------------------------------------------------------------------------------------




--------------------------------------------------------------------------------------------------------


     LOOP+:  cpu time 1055.4006: real time 1056.0580
    4ORBIT:  cpu time    0.0000: real time    0.0000
 


 total charge     
 
# of ion       s       p       d       tot
------------------------------------------
    1        2.018   0.051   0.000   2.070
    2        2.001   0.024   0.000   2.025
    3        2.016   0.049   0.000   2.066
    4        2.026   0.064   0.000   2.090
    5        2.028   0.071   0.000   2.099
    6        2.017   0.045   0.000   2.061
    7        2.006   0.029   0.000   2.034
    8        2.012   0.040   0.000   2.052
    9        2.007   0.031   0.000   2.038
   10        2.021   0.055   0.000   2.077
   11        2.015   0.043   0.000   2.058
   12        2.022   0.058   0.000   2.080
   13        2.016   0.043   0.000   2.059
   14        2.013   0.047   0.000   2.060
   15        2.015   0.050   0.000   2.064
   16        2.013   0.044   0.000   2.057
   17        2.018   0.052   0.000   2.071
   18        2.020   0.051   0.000   2.072
   19        2.008   0.036   0.000   2.045
   20        2.022   0.060   0.000   2.083
   21        2.024   0.061   0.000   2.085
   22        2.046   0.109   0.000   2.155
   23        2.001   0.025   0.000   2.026
   24        2.030   0.073   0.000   2.103
   25        2.022   0.060   0.000   2.082
   26        2.029   0.072   0.000   2.101
   27        2.035   0.081   0.000   2.116
   28        2.022   0.057   0.000   2.079
   29        2.026   0.062   0.000   2.088
   30        2.008   0.038   0.000   2.046
   31        2.020   0.051   0.000   2.071
   32        2.027   0.062   0.000   2.088
   33        2.015   0.044   0.000   2.059
   34        2.014   0.043   0.000   2.057
   35        2.023   0.061   0.000   2.083
   36        2.022   0.053   0.000   2.075
   37        2.016   0.045   0.000   2.061
   38        2.023   0.057   0.000   2.079
   39        2.027   0.070   0.000   2.097
   40        2.150   0.802   0.000   2.952
   41        2.023   0.058   0.000   2.081
   42        2.014   0.044   0.000   2.058
   43        2.019   0.052   0.000   2.071
   44        2.014   0.042   0.000   2.056
   45        2.016   0.044   0.000   2.060
   46        2.017   0.047   0.000   2.063
   47        2.023   0.058   0.000   2.081
   48        2.041   0.095   0.000   2.136
   49        2.008   0.035   0.000   2.043
   50        2.026   0.063   0.000   2.089
   51        2.016   0.048   0.000   2.065
   52        2.017   0.051   0.000   2.068
   53        2.024   0.056   0.000   2.080
   54        2.019   0.053   0.000   2.072
   55        2.020   0.052   0.000   2.072
   56        2.018   0.050   0.000   2.067
   57        2.017   0.051   0.000   2.068
   58        2.011   0.041   0.000   2.052
   59        2.023   0.059   0.000   2.082
   60        2.028   0.068   0.000   2.096
   61        2.020   0.053   0.000   2.073
   62        2.020   0.048   0.000   2.068
   63        2.032   0.078   0.000   2.111
   64        2.037   0.082   0.000   2.119
   65        2.021   0.052   0.000   2.074
   66        2.019   0.051   0.000   2.070
   67        2.024   0.058   0.000   2.082
   68        2.016   0.047   0.000   2.063
   69        2.018   0.050   0.000   2.068
   70        2.023   0.057   0.000   2.081
   71        2.032   0.073   0.000   2.105
   72        2.021   0.052   0.000   2.073
   73        2.036   0.084   0.000   2.120
   74        2.022   0.055   0.000   2.076
   75        2.022   0.052   0.000   2.074
   76        2.016   0.042   0.000   2.058
   77        2.033   0.076   0.000   2.109
   78        2.019   0.055   0.000   2.074
   79        2.016   0.048   0.000   2.063
   80        2.025   0.064   0.000   2.089
   81        2.025   0.064   0.000   2.090
   82        2.014   0.046   0.000   2.060
   83        2.034   0.079   0.000   2.113
   84        2.018   0.049   0.000   2.067
   85        2.012   0.041   0.000   2.053
   86        2.023   0.058   0.000   2.080
   87        2.017   0.048   0.000   2.066
   88        2.022   0.058   0.000   2.081
   89        2.033   0.080   0.000   2.113
   90        2.016   0.047   0.000   2.063
   91        2.029   0.065   0.000   2.093
   92        2.007   0.033   0.000   2.041
   93        2.022   0.056   0.000   2.078
   94        2.014   0.041   0.000   2.056
   95        2.019   0.054   0.000   2.073
   96        2.019   0.050   0.000   2.069
   97        0.982   1.392   0.000   2.374
   98        1.102   1.349   0.000   2.451
   99        1.053   1.354   0.000   2.407
  100        0.983   1.374   0.000   2.357
  101        1.123   1.471   0.000   2.595
  102        1.073   1.320   0.000   2.393
  103        1.170   1.479   0.000   2.649
  104        1.086   1.349   0.000   2.435
  105        1.106   1.245   0.000   2.351
  106        0.973   1.433   0.000   2.406
  107        1.075   1.350   0.000   2.425
  108        1.095   1.259   0.000   2.354
  109        0.992   1.340   0.000   2.331
  110        0.987   1.382   0.000   2.369
  111        0.975   1.365   0.000   2.340
  112        1.096   1.321   0.000   2.418
  113        1.336   2.405   0.000   3.741
  114        1.332   2.421   0.000   3.752
  115        1.356   2.390   0.000   3.746
  116        1.360   2.371   0.000   3.731
  117        1.348   2.416   0.000   3.764
  118        1.309   2.502   0.000   3.811
  119        1.355   2.333   0.000   3.688
  120        1.345   2.356   0.000   3.700
  121        1.347   2.420   0.000   3.767
  122        1.345   2.410   0.000   3.755
  123        1.310   2.481   0.000   3.791
  124        1.346   2.372   0.000   3.718
  125        1.332   2.441   0.000   3.773
  126        1.347   2.511   0.000   3.857
  127        1.348   2.376   0.000   3.723
  128        1.346   2.422   0.000   3.768
  129        1.368   2.679   0.000   4.047
  130        1.325   2.405   0.000   3.730
  131        1.365   2.348   0.000   3.712
  132        1.340   2.365   0.000   3.705
  133        1.350   2.462   0.000   3.811
  134        1.340   2.423   0.000   3.763
  135        1.340   2.405   0.000   3.744
  136        1.376   2.275   0.000   3.650
  137        1.379   2.329   0.000   3.708
  138        1.343   2.521   0.000   3.864
  139        1.364   2.338   0.000   3.702
  140        1.357   2.303   0.000   3.660
  141        1.331   2.420   0.000   3.752
  142        1.338   2.339   0.000   3.677
  143        1.348   2.471   0.000   3.818
  144        1.307   2.490   0.000   3.797
  145        1.310   2.503   0.000   3.813
  146        1.378   2.258   0.000   3.636
  147        1.342   2.370   0.000   3.712
  148        1.346   2.378   0.000   3.724
  149        1.347   2.355   0.000   3.701
  150        1.338   2.501   0.000   3.839
  151        1.343   2.506   0.000   3.850
  152        1.346   2.432   0.000   3.778
  153        1.335   2.472   0.000   3.807
  154        1.353   2.271   0.000   3.624
  155        1.332   2.477   0.000   3.810
  156        1.337   2.381   0.000   3.718
  157        1.338   2.467   0.000   3.805
  158        1.333   2.478   0.000   3.811
  159        1.336   2.370   0.000   3.706
  160        1.340   2.393   0.000   3.733
  161        1.349   2.409   0.000   3.758
  162        1.369   2.288   0.000   3.657
  163        1.344   2.396   0.000   3.740
  164        1.341   2.396   0.000   3.736
  165        1.349   2.420   0.000   3.769
  166        1.361   2.374   0.000   3.735
  167        1.348   2.408   0.000   3.756
  168        1.348   2.437   0.000   3.786
  169        1.335   2.431   0.000   3.766
  170        1.348   2.423   0.000   3.771
  171        1.334   2.397   0.000   3.731
  172        1.348   2.375   0.000   3.723
  173        1.350   2.333   0.000   3.683
  174        1.354   2.393   0.000   3.747
  175        1.319   2.460   0.000   3.779
  176        1.355   2.396   0.000   3.751
  177        1.313   2.438   0.000   3.751
  178        1.309   2.458   0.000   3.767
  179        1.345   2.318   0.000   3.663
  180        1.308   2.552   0.000   3.859
  181        1.314   2.481   0.000   3.795
  182        1.316   2.475   0.000   3.791
  183        1.312   2.500   0.000   3.812
  184        1.308   2.452   0.000   3.761
  185        1.313   2.499   0.000   3.812
  186        1.342   2.349   0.000   3.691
  187        1.309   2.461   0.000   3.770
  188        1.320   2.480   0.000   3.800
  189        1.314   2.494   0.000   3.808
  190        1.384   2.333   0.000   3.716
  191        1.317   2.515   0.000   3.832
  192        1.355   2.379   0.000   3.734
  193        1.590   3.606   0.000   5.196
  194        1.591   3.564   0.000   5.155
  195        1.594   3.566   0.000   5.160
  196        1.599   3.683   0.000   5.282
  197        1.596   3.640   0.000   5.236
  198        1.590   3.549   0.000   5.138
  199        1.590   3.609   0.000   5.199
  200        1.591   3.607   0.000   5.197
  201        1.593   3.619   0.000   5.213
  202        1.596   3.548   0.000   5.144
  203        1.590   3.585   0.000   5.176
  204        1.594   3.578   0.000   5.172
  205        1.593   3.572   0.000   5.165
  206        1.595   3.568   0.000   5.163
  207        1.596   3.573   0.000   5.169
  208        1.594   3.585   0.000   5.179
--------------------------------------------------
tot        343.667 278.547   0.000 622.215
 

 total amount of memory used by VASP MPI-rank0   111673. kBytes
=======================================================================

   base      :      30000. kBytes
   nonl-proj :      48226. kBytes
   fftplans  :       6264. kBytes
   grid      :      10964. kBytes
   one-center:         79. kBytes
   wavefun   :      16140. kBytes
 
  
  
 General timing and accounting informations for this job:
 ========================================================
  
                  Total CPU time used (sec):     1064.645
                            User time (sec):     1061.124
                          System time (sec):        3.521
                         Elapsed time (sec):     1065.751
  
                   Maximum memory used (kb):      329956.
                   Average memory used (kb):           0.
  
                          Minor page faults:       496331
                          Major page faults:            0
                 Voluntary context switches:         8293
