LPSC                                    
           1
    16.026082    0.000000    0.000000
     0.000000   16.100000    0.000000
     0.000000    0.000000   16.425367
   Li   P    S    Cl
  96  16  80  16
Direct configuration=     1
   0.74343186  0.83095031  0.17395350
   0.58727579  0.67162733  0.99809033
   0.67096250  0.63569565  0.18823506
   0.80880654  0.90896273  0.02017355
   0.58516735  0.78806211  0.28601248
   0.91391021  0.73108075  0.89937108
   0.23520721  0.03368845  0.04732174
   0.20849637  0.86010559  0.27854842
   0.09134173  0.02418950  0.34737854
   0.22522972  0.72558385  0.06940058
   0.10675098  0.67701242  0.89521896
   0.31142297  0.85451553  0.43930586
   0.34475363  0.50524286  0.61575489
   0.54586205  0.81247205  0.54037879
   0.69146033  0.86272671  0.76700265
   0.36130852  0.62285714  0.43276841
   0.71235752  0.52518758  0.74353894
   0.15763179  0.74612422  0.63513954
   0.00080844  0.90808075  0.86445557
   0.91976317  0.49720186  0.97152776
   0.17231910  0.46236211  0.67955255
   0.51599449  0.87488820  0.87900623
   0.01356788  0.63243478  0.73721945
   0.86052848  0.54820559  0.84978314
   0.39506100  0.50194037  0.86778579
   0.06832674  0.51500000  0.85921368
   0.26371199  0.60124099  0.80510834
   0.42778890  0.70319255  0.90542878
   0.05394581  0.30962671  0.68764369
   0.52210890  0.62944099  0.73270813
   0.26792013  0.24808385  0.03637739
   0.36695869  0.16667267  0.13794030
   0.47293531  0.07121863  0.02496273
   0.44191026  0.32167950  0.06384089
   0.62647876  0.38940745  0.17658418
   0.10151826  0.17747205  0.13902216
   0.81867795  0.11090994  0.49107518
   0.80168066  0.30552919  0.66769893
   0.60682892  0.01386087  0.91977245
   0.55986547  0.29949627  0.64902051
   0.85970482  0.17669441  0.79708417
   0.75629215  0.31447391  0.88315835
   0.47215907  0.23273727  0.36105251
   0.24753336  0.00619568  0.70645606
   0.34753909  0.08261180  0.32520247
   0.98128164  0.17254472  0.62395562
   0.40644432  0.04741851  0.51658328
   0.94313757  0.33956460  0.40470450
   0.38514716  0.43107702  0.39072917
   0.01260826  0.21847826  0.25544087
   0.19360003  0.25968696  0.30515970
   0.96251223  0.38384783  0.19430068
   0.12386371  0.46082236  0.29783079
   0.29966775  0.47363540  0.21661251
   0.78707946  0.60911739  0.29451823
   0.10471056  0.56335652  0.09675766
   0.80026422  0.49179379  0.10276787
   0.10241742  0.70211801  0.28362958
   0.96016606  0.66386957  0.03461603
   0.10842825  0.44555901  0.43797804
   0.43172498  0.02759398  0.75794958
   0.34685646  0.93254658  0.91328249
   0.38176455  0.86850311  0.63997961
   0.08007634  0.81512422  0.74092104
   0.21949782  0.84639130  0.87247974
   0.31276703  0.76324224  0.75082036
   0.05153792  0.82811801  0.47970131
   0.87091780  0.94039130  0.49515119
   0.90335866  0.78452174  0.27546660
   0.89925286  0.73532298  0.50952712
   0.78668011  0.78204969  0.40150762
   0.74320723  0.13032422  0.68015527
   0.99413568  0.32193727  0.85315598
   0.37125793  0.17032795  0.86522876
   0.12534317  0.15376584  0.82275787
   0.27579791  0.33384534  0.78858512
   0.10915644  0.85431056  0.06004189
   0.20581200  0.46334037  0.94861807
   0.57771513  0.41945839  0.42217869
   0.51120168  0.55722981  0.10798237
   0.71688139  0.24281366  0.29627405
   0.52860955  0.59688696  0.30627078
   0.42786877  0.71595031  0.24795976
   0.76427913  0.43597826  0.35644683
   0.81236949  0.03525435  0.28246310
   0.50971785  0.87928571  0.13831898
   0.65782766  0.69532919  0.40917137
   0.67782007  0.93214907  0.33272133
   0.48678086  0.02707286  0.25410817
   0.52033429  0.93796894  0.37974372
   0.38071189  0.24006708  0.73061381
   0.84419261  0.53922981  0.56049098
   0.56280381  0.09534907  0.73360918
   0.21551681  0.20486708  0.63300260
   0.57255292  0.11001118  0.47535681
   0.63607562  0.17924099  0.84546056
   0.69489224  0.92074534  0.57988720
   0.62928668  0.68481988  0.60677366
   0.35314308  0.29725404  0.22420991
   0.21034149  0.96632919  0.52789445
   0.94430442  0.54207267  0.40351610
   0.88931281  0.43347205  0.73346306
   0.51840244  0.33330932  0.58317053
   0.10852309  0.60061304  0.52037133
   0.60037943  0.10928758  0.24898744
   0.78833367  0.00316185  0.85319250
   0.92336355  0.85711801  0.13028567
   0.34154886  0.53612671  0.05500766
   0.83965626  0.25292671  0.17944196
   0.66754307  0.48194596  0.97658092
   0.27577420  0.66159627  0.25450756
   0.50517712  0.41644472  0.85790473
   0.69559110  0.05166789  0.56426015
   0.65541908  0.87823602  0.46194706
   0.60493950  0.88200000  0.65312391
   0.79411799  0.86857143  0.62896616
   0.68132061  0.67449068  0.71515601
   0.71922757  0.73415528  0.28662434
   0.49807869  0.95893789  0.63790964
   0.50183195  0.68934161  0.43147712
   0.43198331  0.39544720  0.18920247
   0.33385702  0.28597019  0.34978153
   0.11881819  0.13672360  0.26244102
   0.23172601  0.33841739  0.18190218
   0.24513165  0.97142236  0.40460405
   0.28305671  0.04608447  0.57512322
   0.27172892  0.83977019  0.57262100
   0.08492469  0.94547205  0.51892965
   0.90099377  0.45194224  0.43028932
   0.65742831  0.52151925  0.31189866
   0.07450854  0.59488758  0.39419089
   0.68216299  0.30747143  0.42812986
   0.87318909  0.40726894  0.85300986
   0.02785228  0.43461304  0.76132850
   0.86306809  0.56198447  0.70589595
   0.67985425  0.48111553  0.54815944
   0.56616770  0.58142484  0.58722645
   0.48253840  0.42531739  0.52369667
   0.42355455  0.23451366  0.58336292
   0.57451659  0.25554969  0.47517903
   0.02574079  0.69362733  0.57054250
   0.34791847  0.64049689  0.58430049
   0.06407617  0.50228634  0.57016686
   0.16953738  0.71542857  0.76846989
   0.46740432  0.07982733  0.38629883
   0.69205312  0.09640932  0.14348051
   0.68135181  0.08995776  0.35756400
   0.58347761  0.24529255  0.25670294
   0.74656426  0.09770124  0.93820735
   0.68205691  0.00133530  0.78997930
   0.79655776  0.89069565  0.89222968
   0.87624037  0.03640193  0.77453368
   0.83196879  0.93973292  0.15869174
   0.91970701  0.57685342  0.22728016
   0.98023959  0.90196273  0.03217822
   0.83780927  0.76719255  0.06469505
   0.36212719  0.57601925  0.28531052
   0.44180106  0.56228696  0.98481818
   0.23822042  0.61213913  0.97962499
   0.33022482  0.40921739  0.00887871
   0.85272246  0.19785342  0.29245435
   0.73164483  0.21210124  0.11316642
   0.95465005  0.26096273  0.12150596
   0.81313699  0.37112484  0.23262433
   0.63603818  0.50498758  0.10170488
   0.59463629  0.38082733  0.94687078
   0.78320453  0.40986398  0.00120346
   0.72315242  0.56957019  0.91948630
   0.16948622  0.58865093  0.21811324
   0.29349594  0.76557143  0.18829899
   0.45214607  0.78540373  0.36353952
   0.24704416  0.70951553  0.37204709
   0.50119050  0.28193292  0.78496267
   0.70876962  0.42579689  0.64771764
   0.50895222  0.09542236  0.86264739
   0.56067603  0.46923975  0.76333150
   0.53645988  0.70142857  0.17076696
   0.22607397  0.89009317  0.99883309
   0.42919473  0.72947205  0.64010137
   0.97230253  0.60765590  0.91268585
   0.24199864  0.47125342  0.80533360
   0.38521455  0.18213354  0.00188667
   0.72971672  0.24149627  0.75906980
   0.25418440  0.17292236  0.76971796
   0.05303299  0.35759814  0.34197836
   0.97311994  0.51647888  0.12105605
   0.33686711  0.90813043  0.77785781
   0.91372926  0.82624224  0.39788213
   0.00445320  0.21457950  0.79459412
   0.52932151  0.43882671  0.25104766
   0.57582633  0.91670807  0.23832649
   0.47099909  0.12832050  0.62397997
   0.53770160  0.94252174  0.00639444
   0.37575435  0.02781006  0.16193185
   0.24328217  0.44436025  0.43365119
   0.54078470  0.77018012  0.89170001
   0.38455937  0.64228571  0.79536731
   0.15523570  0.16241180  0.99435830
   0.86822219  0.20880621  0.56391312
   0.09363299  0.24923789  0.58008445
   0.08358250  0.72610559  0.06184398
   0.06882655  0.85209938  0.26855108
   0.09954273  0.94500621  0.77763864
   0.95371408  0.79966460  0.76630860
   0.06398382  0.42724720  0.96429504
   0.77866817  0.66404348  0.49656851
   0.90223549  0.01208410  0.38986831
   0.26270114  0.38407888  0.62897225
