       N       E                     dE             d eps       ncg     rms          rms(c)
RMM:   1    -0.114279656023E+04   -0.11428E+04   -0.14710E+05   184   0.131E+03
RMM:   2     0.740614506304E+03    0.18834E+04   -0.23099E+04   184   0.254E+02
RMM:   3     0.244793748735E+03   -0.49582E+03   -0.73217E+03   184   0.135E+02
RMM:   4    -0.133256897968E+02   -0.25812E+03   -0.26002E+03   184   0.981E+01
RMM:   5    -0.125369569011E+03   -0.11204E+03   -0.10195E+03   184   0.635E+01
RMM:   6    -0.171905645234E+03   -0.46536E+02   -0.43381E+02   184   0.469E+01
RMM:   7    -0.194267850373E+03   -0.22362E+02   -0.21538E+02   184   0.358E+01
RMM:   8    -0.207432042786E+03   -0.13164E+02   -0.12410E+02   184   0.307E+01
RMM:   9    -0.242026012556E+03   -0.34594E+02   -0.34346E+02   668   0.268E+01
RMM:  10    -0.260070857838E+03   -0.18045E+02   -0.17821E+02   668   0.173E+01
RMM:  11    -0.263735843064E+03   -0.36650E+01   -0.37515E+01   643   0.103E+01
RMM:  12    -0.265998552458E+03   -0.22627E+01   -0.22643E+01   635   0.773E+00    0.388E+01
RMM:  13    -0.256878888706E+03    0.91197E+01   -0.23021E+01   493   0.752E+00    0.252E+01
RMM:  14    -0.255852524674E+03    0.10264E+01   -0.19665E+01   519   0.680E+00    0.672E+00
RMM:  15    -0.255969646135E+03   -0.11712E+00   -0.42788E+00   589   0.395E+00    0.169E+00
RMM:  16    -0.256089943753E+03   -0.12030E+00   -0.16030E+00   632   0.257E+00    0.134E+00
RMM:  17    -0.256183009573E+03   -0.93066E-01   -0.90225E-01   610   0.191E+00    0.491E-01
RMM:  18    -0.256244057657E+03   -0.61048E-01   -0.61586E-01   608   0.144E+00    0.201E-01
RMM:  19    -0.256283651869E+03   -0.39594E-01   -0.40325E-01   620   0.112E+00    0.215E-01
RMM:  20    -0.256302274373E+03   -0.18623E-01   -0.19217E-01   636   0.834E-01    0.276E-01
RMM:  21    -0.256314575434E+03   -0.12301E-01   -0.14031E-01   613   0.675E-01    0.495E-01
RMM:  22    -0.256321331869E+03   -0.67564E-02   -0.75478E-02   602   0.560E-01    0.217E-01
RMM:  23    -0.256325677139E+03   -0.43453E-02   -0.52055E-02   638   0.438E-01    0.715E-02
RMM:  24    -0.256329495702E+03   -0.38186E-02   -0.39983E-02   638   0.341E-01    0.513E-02
RMM:  25    -0.256331209847E+03   -0.17141E-02   -0.17207E-02   638   0.252E-01    0.532E-02
RMM:  26    -0.256332406648E+03   -0.11968E-02   -0.12948E-02   638   0.206E-01    0.552E-02
RMM:  27    -0.256333205106E+03   -0.79846E-03   -0.80444E-03   627   0.166E-01    0.481E-02
RMM:  28    -0.256333829763E+03   -0.62466E-03   -0.57438E-03   580   0.137E-01    0.211E-02
RMM:  29    -0.256334238386E+03   -0.40862E-03   -0.40229E-03   579   0.113E-01    0.153E-02
RMM:  30    -0.256334513913E+03   -0.27553E-03   -0.26784E-03   578   0.933E-02    0.250E-02
RMM:  31    -0.256334695101E+03   -0.18119E-03   -0.19095E-03   579   0.776E-02    0.161E-02
RMM:  32    -0.256334824553E+03   -0.12945E-03   -0.13924E-03   579   0.645E-02    0.142E-02
RMM:  33    -0.256334908413E+03   -0.83861E-04   -0.90899E-04   573   0.527E-02    0.129E-02
RMM:  34    -0.256334969102E+03   -0.60689E-04   -0.66699E-04   552   0.439E-02    0.125E-02
RMM:  35    -0.256335012524E+03   -0.43423E-04   -0.46428E-04   557   0.368E-02    0.148E-02
RMM:  36    -0.256335042832E+03   -0.30307E-04   -0.33186E-04   512   0.308E-02    0.163E-02
RMM:  37    -0.256335062803E+03   -0.19971E-04   -0.23808E-04   520   0.263E-02    0.152E-02
RMM:  38    -0.256335077228E+03   -0.14426E-04   -0.17414E-04   509   0.224E-02    0.144E-02
RMM:  39    -0.256335089887E+03   -0.12659E-04   -0.12512E-04   469   0.193E-02    0.180E-02
RMM:  40    -0.256335096493E+03   -0.66059E-05   -0.89236E-05   444   0.167E-02    0.168E-02
RMM:  41    -0.256335102412E+03   -0.59188E-05   -0.67390E-05   445   0.148E-02    0.176E-02
RMM:  42    -0.256335106641E+03   -0.42291E-05   -0.49791E-05   452   0.131E-02    0.183E-02
RMM:  43    -0.256335109636E+03   -0.29952E-05   -0.35101E-05   384   0.117E-02    0.189E-02
RMM:  44    -0.256335111675E+03   -0.20388E-05   -0.25912E-05   382   0.107E-02    0.192E-02
RMM:  45    -0.256335113209E+03   -0.15343E-05   -0.19219E-05   352   0.995E-03    0.195E-02
RMM:  46    -0.256335114350E+03   -0.11405E-05   -0.15141E-05   359   0.939E-03    0.198E-02
RMM:  47    -0.256335115188E+03   -0.83802E-06   -0.11313E-05   333   0.893E-03    0.200E-02
RMM:  48    -0.256335115825E+03   -0.63724E-06   -0.82801E-06   314   0.858E-03
   1 F= -.25633512E+03 E0= -.25633512E+03  d E =-.256335E+03
