 vasp.5.4.4.18Apr17-6-g9f103f2a35 (build Jan 22 2020 12:49:05) complex          
  
 executed on Bebop BDW IPS19.0.5  date 2022.09.29  10:01:30
 running on   64 total cores
 distrk:  each k-point on   64 cores,    1 groups
 distr:  one band on NCORES_PER_BAND=   8 cores,    8 groups


--------------------------------------------------------------------------------------------------------


 INCAR:
 POTCAR:    PAW_PBE Li_sv 10Sep2004               
 POTCAR:    PAW_PBE P 06Sep2000                   
 POTCAR:    PAW_PBE S 06Sep2000                   
 POTCAR:    PAW_PBE Cl 06Sep2000                  
 POTCAR:    PAW_PBE Li_sv 10Sep2004               
   VRHFIN =Li: 1s2s2p                                                           
   LEXCH  = PE                                                                  
   EATOM  =   202.7858 eV,   14.9043 Ry                                         
                                                                                
   TITEL  = PAW_PBE Li_sv 10Sep2004                                             
   LULTRA =        F    use ultrasoft PP ?                                      
   IUNSCR =        0    unscreen: 0-lin 1-nonlin 2-no                           
   RPACOR =    0.000    partial core radius                                     
   POMASS =    7.010; ZVAL   =    3.000    mass and valenz                      
   RCORE  =    1.700    outmost cutoff radius                                   
   RWIGS  =    2.050; RWIGS  =    1.085    wigner-seitz radius (au A)           
   ENMAX  =  499.034; ENMIN  =  374.276 eV                                      
   ICORE  =        2    local potential                                         
   LCOR   =        T    correct aug charges                                     
   LPAW   =        T    paw PP                                                  
   EAUG   =  628.945                                                            
   RMAX   =    1.732    core radius for proj-oper                               
   RAUG   =    1.300    factor for augmentation sphere                          
   RDEP   =    1.728    radius for radial grids                                 
   RDEPT  =    1.329    core radius for aug-charge                              
                                                                                
   Atomic configuration                                                         
    4 entries                                                                   
     n  l   j            E        occ.                                          
     1  0  0.50       -51.8549   2.0000                                         
     2  0  0.50        -2.8742   1.0000                                         
     2  1  0.50        -1.3606   0.0000                                         
     3  2  1.50        -1.3606   0.0000                                         
   Description                                                                  
     l       E           TYP  RCUT    TYP  RCUT                                 
     0    -51.8548813     23  1.400                                             
     0     -2.8742052     23  1.700                                             
     1     -1.3605826     23  1.400                                             
     2     -1.3605826     23  1.400                                             
  local pseudopotential read in
  atomic valenz-charges read in
  non local Contribution for L=           0  read in
    real space projection operators read in
  non local Contribution for L=           0  read in
    real space projection operators read in
  non local Contribution for L=           1  read in
    real space projection operators read in
    PAW grid and wavefunctions read in
 
   number of l-projection  operators is LMAX  =           3
   number of lm-projection operators is LMMAX =           5
 
 POTCAR:    PAW_PBE P 06Sep2000                   
   VRHFIN =P : s2p3                                                             
   LEXCH  = PE                                                                  
   EATOM  =   176.0430 eV,   12.9388 Ry                                         
                                                                                
   TITEL  = PAW_PBE P 06Sep2000                                                 
   LULTRA =        F    use ultrasoft PP ?                                      
   IUNSCR =        1    unscreen: 0-lin 1-nonlin 2-no                           
   RPACOR =    1.500    partial core radius                                     
   POMASS =   30.974; ZVAL   =    5.000    mass and valenz                      
   RCORE  =    1.900    outmost cutoff radius                                   
   RWIGS  =    2.330; RWIGS  =    1.233    wigner-seitz radius (au A)           
   ENMAX  =  255.040; ENMIN  =  191.280 eV                                      
   ICORE  =        2    local potential                                         
   LCOR   =        T    correct aug charges                                     
   LPAW   =        T    paw PP                                                  
   EAUG   =  342.924                                                            
   DEXC   =    0.000                                                            
   RMAX   =    1.935    core radius for proj-oper                               
   RAUG   =    1.300    factor for augmentation sphere                          
   RDEP   =    1.931    radius for radial grids                                 
   RDEPT  =    1.794    core radius for aug-charge                              
                                                                                
   Atomic configuration                                                         
    6 entries                                                                   
     n  l   j            E        occ.                                          
     1  0  0.50     -2084.0982   2.0000                                         
     2  0  0.50      -173.9859   2.0000                                         
     2  1  1.50      -124.4865   6.0000                                         
     3  0  0.50       -13.9692   2.0000                                         
     3  1  0.50        -5.5067   3.0000                                         
     3  2  1.50        -5.4423   0.0000                                         
   Description                                                                  
     l       E           TYP  RCUT    TYP  RCUT                                 
     0    -13.9691527     23  1.900                                             
     0    -11.7794650     23  1.900                                             
     1     -5.5066937     23  1.900                                             
     1     -0.2556953     23  1.900                                             
     2     -5.4423304     23  1.900                                             
  local pseudopotential read in
  partial core-charges read in
  partial kinetic energy density read in
  atomic valenz-charges read in
  non local Contribution for L=           0  read in
    real space projection operators read in
  non local Contribution for L=           0  read in
    real space projection operators read in
  non local Contribution for L=           1  read in
    real space projection operators read in
  non local Contribution for L=           1  read in
    real space projection operators read in
    PAW grid and wavefunctions read in
 
   number of l-projection  operators is LMAX  =           4
   number of lm-projection operators is LMMAX =           8
 
 POTCAR:    PAW_PBE S 06Sep2000                   
   VRHFIN =S : s2p4                                                             
   LEXCH  = PE                                                                  
   EATOM  =   276.8230 eV,   20.3459 Ry                                         
                                                                                
   TITEL  = PAW_PBE S 06Sep2000                                                 
   LULTRA =        F    use ultrasoft PP ?                                      
   IUNSCR =        1    unscreen: 0-lin 1-nonlin 2-no                           
   RPACOR =    1.500    partial core radius                                     
   POMASS =   32.066; ZVAL   =    6.000    mass and valenz                      
   RCORE  =    1.900    outmost cutoff radius                                   
   RWIGS  =    2.200; RWIGS  =    1.164    wigner-seitz radius (au A)           
   ENMAX  =  258.689; ENMIN  =  194.016 eV                                      
   ICORE  =        2    local potential                                         
   LCOR   =        T    correct aug charges                                     
   LPAW   =        T    paw PP                                                  
   EAUG   =  335.092                                                            
   DEXC   =    0.000                                                            
   RMAX   =    1.942    core radius for proj-oper                               
   RAUG   =    1.300    factor for augmentation sphere                          
   RDEP   =    1.954    radius for radial grids                                 
   RDEPT  =    1.744    core radius for aug-charge                              
                                                                                
   Atomic configuration                                                         
    6 entries                                                                   
     n  l   j            E        occ.                                          
     1  0  0.50     -2405.8406   2.0000                                         
     2  0  0.50      -211.7007   2.0000                                         
     2  1  1.50      -156.4958   6.0000                                         
     3  0  0.50       -17.2562   2.0000                                         
     3  1  0.50        -7.0085   4.0000                                         
     3  2  1.50        -6.8029   0.0000                                         
   Description                                                                  
     l       E           TYP  RCUT    TYP  RCUT                                 
     0    -17.2561641     23  1.900                                             
     0    -15.8743224     23  1.900                                             
     1     -7.0085400     23  1.900                                             
     1     -2.7779785     23  1.900                                             
     2     -6.8029130     23  1.900                                             
  local pseudopotential read in
  partial core-charges read in
  partial kinetic energy density read in
  atomic valenz-charges read in
  non local Contribution for L=           0  read in
    real space projection operators read in
  non local Contribution for L=           0  read in
    real space projection operators read in
  non local Contribution for L=           1  read in
    real space projection operators read in
  non local Contribution for L=           1  read in
    real space projection operators read in
    PAW grid and wavefunctions read in
 
   number of l-projection  operators is LMAX  =           4
   number of lm-projection operators is LMMAX =           8
 
 POTCAR:    PAW_PBE Cl 06Sep2000                  
   VRHFIN =Cl: s2p5                                                             
   LEXCH  = PE                                                                  
   EATOM  =   409.7259 eV,   30.1140 Ry                                         
                                                                                
   TITEL  = PAW_PBE Cl 06Sep2000                                                
   LULTRA =        F    use ultrasoft PP ?                                      
   IUNSCR =        1    unscreen: 0-lin 1-nonlin 2-no                           
   RPACOR =    1.500    partial core radius                                     
   POMASS =   35.453; ZVAL   =    7.000    mass and valenz                      
   RCORE  =    1.900    outmost cutoff radius                                   
   RWIGS  =    2.100; RWIGS  =    1.111    wigner-seitz radius (au A)           
   ENMAX  =  262.472; ENMIN  =  196.854 eV                                      
   ICORE  =        2    local potential                                         
   LCOR   =        T    correct aug charges                                     
   LPAW   =        T    paw PP                                                  
   EAUG   =  356.192                                                            
   DEXC   =    0.000                                                            
   RMAX   =    1.945    core radius for proj-oper                               
   RAUG   =    1.300    factor for augmentation sphere                          
   RDEP   =    2.020    radius for radial grids                                 
   RDEPT  =    1.678    core radius for aug-charge                              
                                                                                
   Atomic configuration                                                         
    6 entries                                                                   
     n  l   j            E        occ.                                          
     1  0  0.50     -2751.1850   2.0000                                         
     2  0  0.50      -252.6861   2.0000                                         
     2  1  1.50      -191.6157   6.0000                                         
     3  0  0.50       -20.6916   2.0000                                         
     3  1  0.50        -8.5949   5.0000                                         
     3  2  1.50        -8.1635   0.0000                                         
   Description                                                                  
     l       E           TYP  RCUT    TYP  RCUT                                 
     0    -20.6915656     23  1.900                                             
     0    -22.0521482     23  1.900                                             
     1     -8.5948577     23  1.900                                             
     1     -5.3847331     23  1.900                                             
     2     -8.1634956     23  1.900                                             
  local pseudopotential read in
  partial core-charges read in
  partial kinetic energy density read in
  atomic valenz-charges read in
  non local Contribution for L=           0  read in
    real space projection operators read in
  non local Contribution for L=           0  read in
    real space projection operators read in
  non local Contribution for L=           1  read in
    real space projection operators read in
  non local Contribution for L=           1  read in
    real space projection operators read in
    PAW grid and wavefunctions read in
 
   number of l-projection  operators is LMAX  =           4
   number of lm-projection operators is LMMAX =           8
 

 ----------------------------------------------------------------------------- 
|                                                                             |
|  ADVICE TO THIS USER RUNNING 'VASP/VAMP'   (HEAR YOUR MASTER'S VOICE ...):  |
|                                                                             |
|      You have a (more or less) 'large supercell' and for larger cells       |
|      it might be more efficient to use real space projection opertators     |
|      So try LREAL= Auto  in the INCAR   file.                               |
|      Mind:          For very  accurate calculation you might also keep the  |
|      reciprocal projection scheme          (i.e. LREAL=.FALSE.)             |
|                                                                             |
 ----------------------------------------------------------------------------- 

  PAW_PBE Li_sv 10Sep2004               :
 energy of atom  1       EATOM= -202.7858
 kinetic energy error for atom=    0.0143 (will be added to EATOM!!)
  PAW_PBE P 06Sep2000                   :
 energy of atom  2       EATOM= -176.0430
 kinetic energy error for atom=    0.0013 (will be added to EATOM!!)
  PAW_PBE S 06Sep2000                   :
 energy of atom  3       EATOM= -276.8230
 kinetic energy error for atom=    0.0020 (will be added to EATOM!!)
  PAW_PBE Cl 06Sep2000                  :
 energy of atom  4       EATOM= -409.7259
 kinetic energy error for atom=    0.0030 (will be added to EATOM!!)
 
 
 POSCAR: New POSCAR file                         
  positions in cartesian coordinates
  No initial velocities read in
 exchange correlation table for  LEXCH =        8
   RHO(1)=    0.500       N(1)  =     2000
   RHO(2)=  100.500       N(2)  =     4000
 


--------------------------------------------------------------------------------------------------------


 ion  position               nearest neighbor table
   1  0.635  0.894  0.012-  54 2.08  51 2.33  59 2.67
   2  0.726  0.575  0.612-  61 2.21  40 2.24  55 2.47  47 2.57
   3  0.218  0.170  0.024-  48 2.26  50 2.48  44 2.62
   4  0.162  0.704  0.200-  65 2.38  31 2.43  49 2.51
   5  0.292  0.197  0.329-  53 2.54   8 2.58  60 2.70
   6  0.206  0.052  0.661-  63 2.32  36 2.48  41 2.50  39 2.63
   7  0.739  0.562  0.216-  54 2.33  49 2.52  46 2.65
   8  0.512  0.079  0.304-  53 2.29  56 2.33  64 2.51  37 2.55   5 2.58
   9  0.986  0.926  0.587-  63 2.37  40 2.47  52 2.50  39 2.52
  10  0.930  0.389  0.230-  62 2.35  50 2.42  46 2.51
  11  0.438  0.972  0.526-  53 2.35  39 2.58  58 2.67
  12  0.895  0.593  0.015-  65 2.46  54 2.61  33 2.67
  13  0.005  0.360  0.737-  55 2.14  48 2.44  41 2.52
  14  0.300  0.520  0.598-  45 2.20  61 2.34  60 2.53  34 2.65
  15  0.599  0.238  0.987-  57 2.27  46 2.47  56 2.54
  16  0.837  0.193  0.830-  28 2.14  51 2.21  55 2.45  48 2.64
  17  0.616  0.540  0.991-  54 2.35  43 2.49  46 2.58  47 2.69
  18  0.445  0.405  0.435-  60 2.14  53 2.31  61 2.45  42 2.56
  19  0.484  0.655  0.157-  42 2.25  54 2.42  27 2.60
  20  0.209  0.738  0.864-  45 2.38  65 2.43  63 2.44  43 2.48
  21  0.688  0.248  0.220-  46 2.34  62 2.40  64 2.48
  22  0.973  0.696  0.727-  63 2.41  45 2.58  40 2.64
  23  0.026  0.367  0.449-  60 2.35  41 2.49  62 2.55  35 2.66
  24  0.906  0.216  0.038-  46 2.14  51 2.31  48 2.45  50 2.54
  25  0.712  0.128  0.449-  64 2.24  52 2.34  62 2.46  53 2.48
  26  0.545  0.636  0.776-  58 2.46  47 2.50  61 2.54  43 2.68
  27  0.625  0.836  0.245-  54 2.37  64 2.43  37 2.57  19 2.60
  28  0.706  0.049  0.769-  16 2.14  51 2.48  52 2.54  57 2.58
  29  0.599  0.280  0.614-  61 2.30  53 2.43  57 2.57
  30  0.897  0.873  0.027-  65 2.21  51 2.32  54 2.70
  31  0.297  0.607  0.340-  60 2.07  42 2.12  34 2.36   4 2.43
  32  0.281  0.477  0.886-  43 2.03  45 2.19  33 2.31
  33  0.095  0.431  0.984-  44 2.16  48 2.19  32 2.31  12 2.67
  34  0.197  0.716  0.486-  39 1.95  31 2.36  35 2.46  14 2.65
  35  0.979  0.622  0.456-  49 2.07  40 2.09  34 2.46  23 2.66
  36  0.367  0.108  0.803-  38 2.12  57 2.13   6 2.48
  37  0.383  0.890  0.223-  59 2.17   8 2.55  27 2.57
  38  0.438  0.916  0.829-  36 2.12  58 2.19
  39  0.200  0.906  0.486-  34 1.95   9 2.52  11 2.58   6 2.63
  40  0.847  0.737  0.543-  35 2.09   2 2.24   9 2.47  22 2.64
  41  0.027  0.191  0.589-  52 2.07  23 2.49   6 2.50  13 2.52
  42  0.503  0.615  0.335-  31 2.12  19 2.25  18 2.56
  43  0.393  0.621  0.951-  32 2.03  20 2.48  17 2.49  26 2.68
  44  0.185  0.383  0.137-  50 2.11  33 2.16   3 2.62
  45  0.183  0.559  0.744-  32 2.19  14 2.20  20 2.38  22 2.58
  46  0.772  0.369  0.076-  24 2.14  21 2.34  15 2.47  10 2.51  17 2.58   7 2.65
  47  0.770  0.557  0.816-  55 1.94  26 2.50   2 2.57  17 2.69
  48  0.075  0.245  0.899-  33 2.19   3 2.26  13 2.44  24 2.45  16 2.64
  49  0.951  0.648  0.292-  35 2.07   4 2.51   7 2.52
  50  0.080  0.216  0.185-  44 2.11  10 2.42   3 2.48  24 2.54
  51  0.785  0.053  0.959-  16 2.21  24 2.31  30 2.32   1 2.33  28 2.48
  52  0.839  0.120  0.606-  41 2.07  25 2.34   9 2.50  28 2.54
  53  0.478  0.185  0.464-   8 2.29  18 2.31  11 2.35  29 2.43  25 2.48   5 2.54
  54  0.694  0.723  0.088-   1 2.08   7 2.33  17 2.35  27 2.37  19 2.42  12 2.61  30 2.70
  55  0.800  0.399  0.734-  47 1.94  13 2.14  16 2.45   2 2.47
  56  0.449  0.181  0.144-  59 1.99   8 2.33  15 2.54
  57  0.537  0.228  0.811-  36 2.13  15 2.27  29 2.57  28 2.58
  58  0.557  0.852  0.691-  38 2.19  26 2.46  11 2.67
  59  0.414  0.007  0.078-  56 1.99  37 2.17   1 2.67
  60  0.240  0.435  0.413-  31 2.07  18 2.14  23 2.35  14 2.53   5 2.70
  61  0.526  0.492  0.608-   2 2.21  29 2.30  14 2.34  18 2.45  26 2.54
  62  0.795  0.335  0.377-  10 2.35  21 2.40  25 2.46  23 2.55
  63  0.088  0.898  0.758-   6 2.32   9 2.37  22 2.41  20 2.44
  64  0.751  0.029  0.290-  25 2.24  27 2.43  21 2.48   8 2.51
  65  0.074  0.752  0.026-  30 2.21   4 2.38  20 2.43  12 2.46
 

IMPORTANT INFORMATION: All symmetrisations will be switched off!
NOSYMM: (Re-)initialisation of all symmetry stuff for point group C_1.

 
 
 KPOINTS: Regular mesh centered at Gamma          

Automatic generation of k-mesh.
Space group operators:
 irot       det(A)        alpha          n_x          n_y          n_z        tau_x        tau_y        tau_z
    1     1.000000     0.000000     1.000000     0.000000     0.000000     0.000000     0.000000     0.000000
 
 Subroutine IBZKPT returns following result:
 ===========================================
 
 Found      1 irreducible k-points:
 
 Following reciprocal coordinates:
            Coordinates               Weight
  0.000000  0.000000  0.000000      1.000000
 
 Following cartesian coordinates:
            Coordinates               Weight
  0.000000  0.000000  0.000000      1.000000
 


--------------------------------------------------------------------------------------------------------




 Dimension of arrays:
   k-points           NKPTS =      1   k-points in BZ     NKDIM =      1   number of bands    NBANDS=    184
   number of dos      NEDOS =    301   number of ions     NIONS =     65
   non local maximal  LDIM  =      4   non local SUM 2l+1 LMDIM =      8
   total plane-waves  NPLWV = 219520
   max r-space proj   IRMAX =      1   max aug-charges    IRDMAX=   5529
   dimension x,y,z NGX =    56 NGY =   56 NGZ =   70
   dimension x,y,z NGXF=   112 NGYF=  112 NGZF=  140
   support grid    NGXF=   112 NGYF=  112 NGZF=  140
   ions per type =              30   5  25   5
   NGX,Y,Z   is equivalent  to a cutoff of   9.08,  9.08,  9.42 a.u.
   NGXF,Y,Z  is equivalent  to a cutoff of  18.17, 18.17, 18.85 a.u.

 SYSTEM =  LPSC                                    
 POSCAR =  New POSCAR file                         

 Startparameter for this run:
   NWRITE =      2    write-flag & timer
   PREC   = normal    normal or accurate (medium, high low for compatibility)
   ISTART =      0    job   : 0-new  1-cont  2-samecut
   ICHARG =      2    charge: 1-file 2-atom 10-const
   ISPIN  =      1    spin polarized calculation?
   LNONCOLLINEAR =      F non collinear calculations
   LSORBIT =      F    spin-orbit coupling
   INIWAV =      1    electr: 0-lowe 1-rand  2-diag
   LASPH  =      F    aspherical Exc in radial PAW
   METAGGA=      F    non-selfconsistent MetaGGA calc.

 Electronic Relaxation 1
   ENCUT  =  500.0 eV  36.75 Ry    6.06 a.u.  18.69 18.69 22.52*2*pi/ulx,y,z
   ENINI  =  500.0     initial cutoff
   ENAUG  =  628.9 eV  augmentation charge cutoff
   NELM   =    100;   NELMIN=  2; NELMDL=-12     # of ELM steps 
   EDIFF  = 0.1E-05   stopping-criterion for ELM
   LREAL  =      F    real-space projection
   NLSPLINE    = F    spline interpolate recip. space projectors
   LCOMPAT=      F    compatible to vasp.4.4
   GGA_COMPAT  = T    GGA compatible to vasp.4.4-vasp.4.6
   LMAXPAW     = -100 max onsite density
   LMAXMIX     =    2 max onsite mixed and CHGCAR
   VOSKOWN=      0    Vosko Wilk Nusair interpolation
   ROPT   =    0.00000   0.00000   0.00000   0.00000
 Ionic relaxation
   EDIFFG = -.1E-01   stopping-criterion for IOM
   NSW    =      1    number of steps for IOM
   NBLOCK =      1;   KBLOCK =      1    inner block; outer block 
   IBRION =      2    ionic relax: 0-MD 1-quasi-New 2-CG
   NFREE  =      1    steps in history (QN), initial steepest desc. (CG)
   ISIF   =      2    stress and relaxation
   IWAVPR =     11    prediction:  0-non 1-charg 2-wave 3-comb
   ISYM   =      0    0-nonsym 1-usesym 2-fastsym
   LCORR  =      T    Harris-Foulkes like correction to forces

   POTIM  = 0.5000    time-step for ionic-motion
   TEIN   =    0.0    initial temperature
   TEBEG  =    0.0;   TEEND  =   0.0 temperature during run
   SMASS  =  -3.00    Nose mass-parameter (am)
   estimated Nose-frequenzy (Omega)   =  0.10E-29 period in steps =****** mass=  -0.240E-26a.u.
   SCALEE = 1.0000    scale energy and forces
   NPACO  =    256;   APACO  = 16.0  distance and # of slots for P.C.
   PSTRESS=    0.0 pullay stress

  Mass of Ions in am
   POMASS =   7.01 30.97 32.07 35.45
  Ionic Valenz
   ZVAL   =   3.00  5.00  6.00  7.00
  Atomic Wigner-Seitz radii
   RWIGS  =  -1.00 -1.00 -1.00 -1.00
  virtual crystal weights 
   VCA    =   1.00  1.00  1.00  1.00
   NELECT =     300.0000    total number of electrons
   NUPDOWN=      -1.0000    fix difference up-down

 DOS related values:
   EMIN   =  10.00;   EMAX   =-10.00  energy-range for DOS
   EFERMI =   0.00
   ISMEAR =     0;   SIGMA  =   0.05  broadening in eV -4-tet -1-fermi 0-gaus

 Electronic relaxation 2 (details)
   IALGO  =     48    algorithm
   LDIAG  =      T    sub-space diagonalisation (order eigenvalues)
   LSUBROT=      F    optimize rotation matrix (better conditioning)
   TURBO    =      0    0=normal 1=particle mesh
   IRESTART =      0    0=no restart 2=restart with 2 vectors
   NREBOOT  =      0    no. of reboots
   NMIN     =      0    reboot dimension
   EREF     =   0.00    reference energy to select bands
   IMIX   =      4    mixing-type and parameters
     AMIX     =   0.40;   BMIX     =  1.00
     AMIX_MAG =   1.60;   BMIX_MAG =  1.00
     AMIN     =   0.10
     WC   =   100.;   INIMIX=   1;  MIXPRE=   1;  MAXMIX= -45

 Intra band minimization:
   WEIMIN = 0.0010     energy-eigenvalue tresh-hold
   EBREAK =  0.14E-08  absolut break condition
   DEPER  =   0.30     relativ break condition  

   TIME   =   0.40     timestep for ELM

  volume/ion in A,a.u.               =      19.96       134.71
  Fermi-wavevector in a.u.,A,eV,Ry     =   1.004794  1.898785 13.736591  1.009611
  Thomas-Fermi vector in A             =   2.137432
 
 Write flags
   LWAVE        =      F    write WAVECAR
   LDOWNSAMPLE  =      F    k-point downsampling of WAVECAR
   LCHARG       =      F    write CHGCAR
   LVTOT        =      F    write LOCPOT, total local potential
   LVHAR        =      F    write LOCPOT, Hartree potential only
   LELF         =      F    write electronic localiz. function (ELF)
   LORBIT       =     11    0 simple, 1 ext, 2 COOP (PROOUT), +10 PAW based schemes


 Dipole corrections
   LMONO  =      F    monopole corrections only (constant potential shift)
   LDIPOL =      F    correct potential (dipole corrections)
   IDIPOL =      0    1-x, 2-y, 3-z, 4-all directions 
   EPSILON=  1.0000000 bulk dielectric constant

 Exchange correlation treatment:
   GGA     =    --    GGA type
   LEXCH   =     8    internal setting for exchange type
   VOSKOWN=      0    Vosko Wilk Nusair interpolation
   LHFCALC =     F    Hartree Fock is set to
   LHFONE  =     F    Hartree Fock one center treatment
   AEXX    =    0.0000 exact exchange contribution

 Linear response parameters
   LEPSILON=     F    determine dielectric tensor
   LRPA    =     F    only Hartree local field effects (RPA)
   LNABLA  =     F    use nabla operator in PAW spheres
   LVEL    =     F    velocity operator in full k-point grid
   LINTERFAST=   F  fast interpolation
   KINTER  =     0    interpolate to denser k-point grid
   CSHIFT  =0.1000    complex shift for real part using Kramers Kronig
   OMEGAMAX=  -1.0    maximum frequency
   DEG_THRESHOLD= 0.2000000E-02 threshold for treating states as degnerate
   RTIME   =   -0.100 relaxation time in fs
  (WPLASMAI=    0.000 imaginary part of plasma frequency in eV, 0.658/RTIME)
   DFIELD  = 0.0000000 0.0000000 0.0000000 field for delta impulse in time
 
 Orbital magnetization related:
   ORBITALMAG=     F  switch on orbital magnetization
   LCHIMAG   =     F  perturbation theory with respect to B field
   DQ        =  0.001000  dq finite difference perturbation B field
   LLRAUG    =     F  two centre corrections for induced B field



--------------------------------------------------------------------------------------------------------


 conjugate gradient relaxation of ions
 charge density and potential will be updated during run
 non-spin polarized calculation
 RMM-DIIS sequential band-by-band
 perform sub-space diagonalisation
    before iterative eigenvector-optimisation
 modified Broyden-mixing scheme, WC =      100.0
 initial mixing is a Kerker type mixing with AMIX =  0.4000 and BMIX =      1.0000
 Hartree-type preconditioning will be used
 using additional bands           34
 reciprocal scheme for non local part
 use partial core corrections
 calculate Harris-corrections to forces 
   (improved forces if not selfconsistent)
 use gradient corrections 
 use of overlap-Matrix (Vanderbilt PP)
 Gauss-broadening in eV      SIGMA  =   0.05


--------------------------------------------------------------------------------------------------------


  energy-cutoff  :      500.00
  volume of cell :     1297.52
      direct lattice vectors                 reciprocal lattice vectors
    10.250000000  0.000000000  0.000000000     0.097560976  0.000000000  0.000000000
     0.000000000 10.250000000  0.000000000     0.000000000  0.097560976  0.000000000
     0.000000000  0.000000000 12.350000000     0.000000000  0.000000000  0.080971660

  length of vectors
    10.250000000 10.250000000 12.350000000     0.097560976  0.097560976  0.080971660


 
 k-points in units of 2pi/SCALE and weight: Regular mesh centered at Gamma          
   0.00000000  0.00000000  0.00000000       1.000
 
 k-points in reciprocal lattice and weights: Regular mesh centered at Gamma          
   0.00000000  0.00000000  0.00000000       1.000
 
 position of ions in fractional coordinates (direct lattice) 
   0.63470829  0.89419220  0.01178356
   0.72612195  0.57472585  0.61156356
   0.21762537  0.17020000  0.02394397
   0.16176195  0.70425366  0.19997085
   0.29166732  0.19663024  0.32938381
   0.20628000  0.05174800  0.66136680
   0.73922146  0.56245268  0.21581296
   0.51160683  0.07862654  0.30369798
   0.98643902  0.92625171  0.58731741
   0.92992000  0.38884488  0.22966964
   0.43789268  0.97176683  0.52643158
   0.89500000  0.59305463  0.01521190
   0.00540259  0.35982341  0.73678704
   0.30030439  0.51984780  0.59782510
   0.59945268  0.23824780  0.98686640
   0.83691024  0.19312098  0.82974899
   0.61647317  0.54017073  0.99143320
   0.44507024  0.40542634  0.43549069
   0.48355902  0.65519317  0.15686721
   0.20859122  0.73821463  0.86425101
   0.68758732  0.24750146  0.22043968
   0.97345268  0.69620098  0.72699919
   0.02550439  0.36683707  0.44929069
   0.90634927  0.21649463  0.03831401
   0.71192293  0.12774927  0.44943482
   0.54469171  0.63552195  0.77555223
   0.62532488  0.83585463  0.24549798
   0.70552976  0.04853990  0.76914737
   0.59931610  0.27985268  0.61390364
   0.89663220  0.87327415  0.02724923
   0.29687220  0.60696683  0.33952713
   0.28086732  0.47684293  0.88604049
   0.09521610  0.43136000  0.98442105
   0.19719707  0.71551805  0.48619190
   0.97883902  0.62237951  0.45629150
   0.36737171  0.10808098  0.80329231
   0.38250537  0.89010341  0.22274656
   0.43828683  0.91607707  0.82866397
   0.19966146  0.90602439  0.48649474
   0.84728780  0.73712293  0.54336437
   0.02660546  0.19144098  0.58914332
   0.50340878  0.61546927  0.33490769
   0.39266244  0.62072098  0.95129555
   0.18545366  0.38339805  0.13748988
   0.18323902  0.55909854  0.74382672
   0.77158341  0.36925756  0.07567619
   0.77031024  0.55735805  0.81580567
   0.07505102  0.24458439  0.89931984
   0.95099317  0.64819024  0.29156518
   0.08039015  0.21581073  0.18464858
   0.78516878  0.05287161  0.95902024
   0.83931122  0.11974634  0.60617409
   0.47795220  0.18495415  0.46414737
   0.69359317  0.72282049  0.08776680
   0.80014049  0.39878829  0.73388583
   0.44943610  0.18091512  0.14375223
   0.53654439  0.22795512  0.81051822
   0.55730829  0.85206244  0.69117571
   0.41353171  0.00680913  0.07839879
   0.23982439  0.43454439  0.41251174
   0.52649073  0.49247122  0.60787854
   0.79520293  0.33477854  0.37680324
   0.08819024  0.89774049  0.75761619
   0.75068293  0.02948546  0.29040567
   0.07416761  0.75165073  0.02621619
 
 position of ions in cartesian coordinates  (Angst):
   6.50576000  9.16547000  0.14552700
   7.44275000  5.89094000  7.55281000
   2.23066000  1.74455000  0.29570800
   1.65806000  7.21860000  2.46964000
   2.98959000  2.01546000  4.06789000
   2.11437000  0.53041700  8.16788000
   7.57702000  5.76514000  2.66529000
   5.24397000  0.80592200  3.75067000
  10.11100000  9.49408000  7.25337000
   9.53168000  3.98566000  2.83642000
   4.48840000  9.96061000  6.50143000
   9.17375000  6.07881000  0.18786700
   0.05537650  3.68819000  9.09932000
   3.07812000  5.32844000  7.38314000
   6.14439000  2.44204000 12.18780000
   8.57833000  1.97949000 10.24740000
   6.31885000  5.53675000 12.24420000
   4.56197000  4.15562000  5.37831000
   4.95648000  6.71573000  1.93731000
   2.13806000  7.56670000 10.67350000
   7.04777000  2.53689000  2.72243000
   9.97789000  7.13606000  8.97844000
   0.26142000  3.76008000  5.54874000
   9.29008000  2.21907000  0.47317800
   7.29721000  1.30943000  5.55052000
   5.58309000  6.51410000  9.57807000
   6.40958000  8.56751000  3.03190000
   7.23168000  0.49753400  9.49897000
   6.14299000  2.86849000  7.58171000
   9.19048000  8.95106000  0.33652800
   3.04294000  6.22141000  4.19316000
   2.87889000  4.88764000 10.94260000
   0.97596500  4.42144000 12.15760000
   2.02127000  7.33406000  6.00447000
  10.03310000  6.37939000  5.63520000
   3.76556000  1.10783000  9.92066000
   3.92068000  9.12356000  2.75092000
   4.49244000  9.38979000 10.23400000
   2.04653000  9.28675000  6.00821000
   8.68470000  7.55551000  6.71055000
   0.27270600  1.96227000  7.27592000
   5.15994000  6.30856000  4.13611000
   4.02479000  6.36239000 11.74850000
   1.90090000  3.92983000  1.69800000
   1.87820000  5.73076000  9.18626000
   7.90873000  3.78489000  0.93460100
   7.89568000  5.71292000 10.07520000
   0.76927300  2.50699000 11.10660000
   9.74768000  6.64395000  3.60083000
   0.82399900  2.21206000  2.28041000
   8.04798000  0.54193400 11.84390000
   8.60294000  1.22740000  7.48625000
   4.89901000  1.89578000  5.73222000
   7.10933000  7.40891000  1.08392000
   8.20144000  4.08758000  9.06349000
   4.60672000  1.85438000  1.77534000
   5.49958000  2.33654000 10.00990000
   5.71241000  8.73364000  8.53602000
   4.23870000  0.06979360  0.96822500
   2.45820000  4.45408000  5.09452000
   5.39653000  5.04783000  7.50730000
   8.15083000  3.43148000  4.65352000
   0.90395000  9.20184000  9.35656000
   7.69450000  0.30222600  3.58651000
   0.76021800  7.70442000  0.32377000
 


--------------------------------------------------------------------------------------------------------


 k-point  1 :   0.0000 0.0000 0.0000  plane waves:   33049

 maximum and minimum number of plane-waves per node :      4138     4129

 maximum number of plane-waves:     33049
 maximum index in each direction: 
   IXMAX=   18   IYMAX=   18   IZMAX=   22
   IXMIN=  -18   IYMIN=  -18   IZMIN=  -22


 parallel 3D FFT for wavefunctions:
    minimum data exchange during FFTs selected (reduces bandwidth)
 parallel 3D FFT for charge:
    minimum data exchange during FFTs selected (reduces bandwidth)


 total amount of memory used by VASP MPI-rank0    42204. kBytes
=======================================================================

   base      :      30000. kBytes
   nonl-proj :       5360. kBytes
   fftplans  :       1886. kBytes
   grid      :       3386. kBytes
   one-center:         27. kBytes
   wavefun   :       1545. kBytes
 
     INWAV:  cpu time    0.0001: real time    0.0001
 Broyden mixing: mesh for mixing (old mesh)
   NGX = 37   NGY = 37   NGZ = 45
  (NGX  =112   NGY  =112   NGZ  =140)
  gives a total of  61605 points

 initial charge density was supplied:
 charge density of overlapping atoms calculated
 number of electron     300.0000000 magnetization 
 keeping initial charge density in first step


--------------------------------------------------------------------------------------------------------


 Maximum index for augmentation-charges          357 (set IRDMAX)


--------------------------------------------------------------------------------------------------------


 First call to EWALD:  gamma=   0.163
 Maximum number of real-space cells 3x 3x 2
 Maximum number of reciprocal cells 3x 3x 3

    FEWALD:  cpu time    0.0087: real time    0.0093


--------------------------------------- Iteration      1(   1)  ---------------------------------------


    POTLOK:  cpu time    0.0891: real time    0.1143
    SETDIJ:  cpu time    0.0157: real time    0.0177
    EDDIAG:  cpu time    0.2439: real time    0.2592
  RMM-DIIS:  cpu time    0.3433: real time    0.3446
    ORTHCH:  cpu time    0.0203: real time    0.0203
       DOS:  cpu time    0.0018: real time    0.0025
    --------------------------------------------
      LOOP:  cpu time    0.7143: real time    0.7587

 eigenvalue-minimisations  :   184
 total energy-change (2. order) :-0.1142797E+04  (-0.1470997E+05)
 number of electron     300.0000000 magnetization 
 augmentation part      300.0000000 magnetization 

 Free energy of the ion-electron system (eV)
  ---------------------------------------------------
  alpha Z        PSCENC =       256.70245505
  Ewald energy   TEWEN  =     -9887.82438888
  -Hartree energ DENC   =     -3370.01594424
  -exchange      EXHF   =         0.00000000
  -V(xc)+E(xc)   XCENC  =       792.03401158
  PAW double counting   =     10155.13001117   -10497.29644279
  entropy T*S    EENTRO =        -0.00000001
  eigenvalues    EBANDS =     -4524.02163701
  atomic energy  EATOM  =     15932.49537490
  Solvation  Ediel_sol  =         0.00000000
  ---------------------------------------------------
  free energy    TOTEN  =     -1142.79656023 eV

  energy without entropy =    -1142.79656022  energy(sigma->0) =    -1142.79656022


--------------------------------------------------------------------------------------------------------




--------------------------------------- Iteration      1(   2)  ---------------------------------------


    EDDIAG:  cpu time    0.1859: real time    0.1858
  RMM-DIIS:  cpu time    0.3296: real time    0.3296
    ORTHCH:  cpu time    0.0205: real time    0.0205
       DOS:  cpu time    0.0011: real time    0.0010
    --------------------------------------------
      LOOP:  cpu time    0.5371: real time    0.5370

 eigenvalue-minimisations  :   184
 total energy-change (2. order) : 0.1883411E+04  (-0.2309912E+04)
 number of electron     300.0000000 magnetization 
 augmentation part      300.0000000 magnetization 

 Free energy of the ion-electron system (eV)
  ---------------------------------------------------
  alpha Z        PSCENC =       256.70245505
  Ewald energy   TEWEN  =     -9887.82438888
  -Hartree energ DENC   =     -3370.01594424
  -exchange      EXHF   =         0.00000000
  -V(xc)+E(xc)   XCENC  =       792.03401158
  PAW double counting   =     10155.13001117   -10497.29644279
  entropy T*S    EENTRO =        -0.03500312
  eigenvalues    EBANDS =     -2640.57556737
  atomic energy  EATOM  =     15932.49537490
  Solvation  Ediel_sol  =         0.00000000
  ---------------------------------------------------
  free energy    TOTEN  =       740.61450630 eV

  energy without entropy =      740.64950942  energy(sigma->0) =      740.63200786


--------------------------------------------------------------------------------------------------------




--------------------------------------- Iteration      1(   3)  ---------------------------------------


    EDDIAG:  cpu time    0.1842: real time    0.1840
  RMM-DIIS:  cpu time    0.3339: real time    0.3346
    ORTHCH:  cpu time    0.0205: real time    0.0205
       DOS:  cpu time    0.0011: real time    0.0011
    --------------------------------------------
      LOOP:  cpu time    0.5397: real time    0.5420

 eigenvalue-minimisations  :   184
 total energy-change (2. order) :-0.4958208E+03  (-0.7321689E+03)
 number of electron     300.0000000 magnetization 
 augmentation part      300.0000000 magnetization 

 Free energy of the ion-electron system (eV)
  ---------------------------------------------------
  alpha Z        PSCENC =       256.70245505
  Ewald energy   TEWEN  =     -9887.82438888
  -Hartree energ DENC   =     -3370.01594424
  -exchange      EXHF   =         0.00000000
  -V(xc)+E(xc)   XCENC  =       792.03401158
  PAW double counting   =     10155.13001117   -10497.29644279
  entropy T*S    EENTRO =        -0.07015748
  eigenvalues    EBANDS =     -3136.36117057
  atomic energy  EATOM  =     15932.49537490
  Solvation  Ediel_sol  =         0.00000000
  ---------------------------------------------------
  free energy    TOTEN  =       244.79374873 eV

  energy without entropy =      244.86390622  energy(sigma->0) =      244.82882748


--------------------------------------------------------------------------------------------------------




--------------------------------------- Iteration      1(   4)  ---------------------------------------


    EDDIAG:  cpu time    0.1825: real time    0.1840
  RMM-DIIS:  cpu time    0.3306: real time    0.3307
    ORTHCH:  cpu time    0.0205: real time    0.0205
       DOS:  cpu time    0.0010: real time    0.0010
    --------------------------------------------
      LOOP:  cpu time    0.5345: real time    0.5345

 eigenvalue-minimisations  :   184
 total energy-change (2. order) :-0.2581194E+03  (-0.2600250E+03)
 number of electron     300.0000000 magnetization 
 augmentation part      300.0000000 magnetization 

 Free energy of the ion-electron system (eV)
  ---------------------------------------------------
  alpha Z        PSCENC =       256.70245505
  Ewald energy   TEWEN  =     -9887.82438888
  -Hartree energ DENC   =     -3370.01594424
  -exchange      EXHF   =         0.00000000
  -V(xc)+E(xc)   XCENC  =       792.03401158
  PAW double counting   =     10155.13001117   -10497.29644279
  entropy T*S    EENTRO =        -0.05268282
  eigenvalues    EBANDS =     -3394.49808377
  atomic energy  EATOM  =     15932.49537490
  Solvation  Ediel_sol  =         0.00000000
  ---------------------------------------------------
  free energy    TOTEN  =       -13.32568980 eV

  energy without entropy =      -13.27300698  energy(sigma->0) =      -13.29934839


--------------------------------------------------------------------------------------------------------




--------------------------------------- Iteration      1(   5)  ---------------------------------------


    EDDIAG:  cpu time    0.1835: real time    0.1844
  RMM-DIIS:  cpu time    0.3295: real time    0.3293
    ORTHCH:  cpu time    0.0206: real time    0.0205
       DOS:  cpu time    0.0006: real time    0.0006
    --------------------------------------------
      LOOP:  cpu time    0.5342: real time    0.5348

 eigenvalue-minimisations  :   184
 total energy-change (2. order) :-0.1120439E+03  (-0.1019465E+03)
 number of electron     300.0000000 magnetization 
 augmentation part      300.0000000 magnetization 

 Free energy of the ion-electron system (eV)
  ---------------------------------------------------
  alpha Z        PSCENC =       256.70245505
  Ewald energy   TEWEN  =     -9887.82438888
  -Hartree energ DENC   =     -3370.01594424
  -exchange      EXHF   =         0.00000000
  -V(xc)+E(xc)   XCENC  =       792.03401158
  PAW double counting   =     10155.13001117   -10497.29644279
  entropy T*S    EENTRO =        -0.00000000
  eigenvalues    EBANDS =     -3506.59464580
  atomic energy  EATOM  =     15932.49537490
  Solvation  Ediel_sol  =         0.00000000
  ---------------------------------------------------
  free energy    TOTEN  =      -125.36956901 eV

  energy without entropy =     -125.36956901  energy(sigma->0) =     -125.36956901


--------------------------------------------------------------------------------------------------------




--------------------------------------- Iteration      1(   6)  ---------------------------------------


    EDDIAG:  cpu time    0.1811: real time    0.1811
  RMM-DIIS:  cpu time    0.3274: real time    0.3283
    ORTHCH:  cpu time    0.0203: real time    0.0202
       DOS:  cpu time    0.0006: real time    0.0006
    --------------------------------------------
      LOOP:  cpu time    0.5293: real time    0.5301

 eigenvalue-minimisations  :   184
 total energy-change (2. order) :-0.4653608E+02  (-0.4338130E+02)
 number of electron     300.0000000 magnetization 
 augmentation part      300.0000000 magnetization 

 Free energy of the ion-electron system (eV)
  ---------------------------------------------------
  alpha Z        PSCENC =       256.70245505
  Ewald energy   TEWEN  =     -9887.82438888
  -Hartree energ DENC   =     -3370.01594424
  -exchange      EXHF   =         0.00000000
  -V(xc)+E(xc)   XCENC  =       792.03401158
  PAW double counting   =     10155.13001117   -10497.29644279
  entropy T*S    EENTRO =        -0.00000000
  eigenvalues    EBANDS =     -3553.13072202
  atomic energy  EATOM  =     15932.49537490
  Solvation  Ediel_sol  =         0.00000000
  ---------------------------------------------------
  free energy    TOTEN  =      -171.90564523 eV

  energy without entropy =     -171.90564523  energy(sigma->0) =     -171.90564523


--------------------------------------------------------------------------------------------------------




--------------------------------------- Iteration      1(   7)  ---------------------------------------


    EDDIAG:  cpu time    0.1806: real time    0.1804
  RMM-DIIS:  cpu time    0.3290: real time    0.3288
    ORTHCH:  cpu time    0.0202: real time    0.0202
       DOS:  cpu time    0.0006: real time    0.0006
    --------------------------------------------
      LOOP:  cpu time    0.5304: real time    0.5301

 eigenvalue-minimisations  :   184
 total energy-change (2. order) :-0.2236221E+02  (-0.2153762E+02)
 number of electron     300.0000000 magnetization 
 augmentation part      300.0000000 magnetization 

 Free energy of the ion-electron system (eV)
  ---------------------------------------------------
  alpha Z        PSCENC =       256.70245505
  Ewald energy   TEWEN  =     -9887.82438888
  -Hartree energ DENC   =     -3370.01594424
  -exchange      EXHF   =         0.00000000
  -V(xc)+E(xc)   XCENC  =       792.03401158
  PAW double counting   =     10155.13001117   -10497.29644279
  entropy T*S    EENTRO =        -0.00000000
  eigenvalues    EBANDS =     -3575.49292716
  atomic energy  EATOM  =     15932.49537490
  Solvation  Ediel_sol  =         0.00000000
  ---------------------------------------------------
  free energy    TOTEN  =      -194.26785037 eV

  energy without entropy =     -194.26785037  energy(sigma->0) =     -194.26785037


--------------------------------------------------------------------------------------------------------




--------------------------------------- Iteration      1(   8)  ---------------------------------------


    EDDIAG:  cpu time    0.1805: real time    0.1807
  RMM-DIIS:  cpu time    0.3277: real time    0.3283
    ORTHCH:  cpu time    0.0204: real time    0.0203
       DOS:  cpu time    0.0006: real time    0.0006
    --------------------------------------------
      LOOP:  cpu time    0.5291: real time    0.5299

 eigenvalue-minimisations  :   184
 total energy-change (2. order) :-0.1316419E+02  (-0.1241031E+02)
 number of electron     300.0000000 magnetization 
 augmentation part      300.0000000 magnetization 

 Free energy of the ion-electron system (eV)
  ---------------------------------------------------
  alpha Z        PSCENC =       256.70245505
  Ewald energy   TEWEN  =     -9887.82438888
  -Hartree energ DENC   =     -3370.01594424
  -exchange      EXHF   =         0.00000000
  -V(xc)+E(xc)   XCENC  =       792.03401158
  PAW double counting   =     10155.13001117   -10497.29644279
  entropy T*S    EENTRO =        -0.00000000
  eigenvalues    EBANDS =     -3588.65711958
  atomic energy  EATOM  =     15932.49537490
  Solvation  Ediel_sol  =         0.00000000
  ---------------------------------------------------
  free energy    TOTEN  =      -207.43204279 eV

  energy without entropy =     -207.43204279  energy(sigma->0) =     -207.43204279


--------------------------------------------------------------------------------------------------------




--------------------------------------- Iteration      1(   9)  ---------------------------------------


    EDDIAG:  cpu time    0.1811: real time    0.1810
  RMM-DIIS:  cpu time    1.1334: real time    1.1331
    ORTHCH:  cpu time    0.0348: real time    0.0347
       DOS:  cpu time    0.0009: real time    0.0009
    --------------------------------------------
      LOOP:  cpu time    1.3503: real time    1.3499

 eigenvalue-minimisations  :   668
 total energy-change (2. order) :-0.3459397E+02  (-0.3434571E+02)
 number of electron     300.0000000 magnetization 
 augmentation part      300.0000000 magnetization 

 Free energy of the ion-electron system (eV)
  ---------------------------------------------------
  alpha Z        PSCENC =       256.70245505
  Ewald energy   TEWEN  =     -9887.82438888
  -Hartree energ DENC   =     -3370.01594424
  -exchange      EXHF   =         0.00000000
  -V(xc)+E(xc)   XCENC  =       792.03401158
  PAW double counting   =     10155.13001117   -10497.29644279
  entropy T*S    EENTRO =        -0.00000000
  eigenvalues    EBANDS =     -3623.25108935
  atomic energy  EATOM  =     15932.49537490
  Solvation  Ediel_sol  =         0.00000000
  ---------------------------------------------------
  free energy    TOTEN  =      -242.02601256 eV

  energy without entropy =     -242.02601256  energy(sigma->0) =     -242.02601256


--------------------------------------------------------------------------------------------------------




--------------------------------------- Iteration      1(  10)  ---------------------------------------


    EDDIAG:  cpu time    0.2081: real time    0.2080
  RMM-DIIS:  cpu time    1.2341: real time    1.2331
    ORTHCH:  cpu time    0.0268: real time    0.0269
       DOS:  cpu time    0.0008: real time    0.0008
    --------------------------------------------
      LOOP:  cpu time    1.4698: real time    1.4688

 eigenvalue-minimisations  :   668
 total energy-change (2. order) :-0.1804485E+02  (-0.1782071E+02)
 number of electron     300.0000000 magnetization 
 augmentation part      300.0000000 magnetization 

 Free energy of the ion-electron system (eV)
  ---------------------------------------------------
  alpha Z        PSCENC =       256.70245505
  Ewald energy   TEWEN  =     -9887.82438888
  -Hartree energ DENC   =     -3370.01594424
  -exchange      EXHF   =         0.00000000
  -V(xc)+E(xc)   XCENC  =       792.03401158
  PAW double counting   =     10155.13001117   -10497.29644279
  entropy T*S    EENTRO =        -0.00000000
  eigenvalues    EBANDS =     -3641.29593463
  atomic energy  EATOM  =     15932.49537490
  Solvation  Ediel_sol  =         0.00000000
  ---------------------------------------------------
  free energy    TOTEN  =      -260.07085784 eV

  energy without entropy =     -260.07085784  energy(sigma->0) =     -260.07085784


--------------------------------------------------------------------------------------------------------




--------------------------------------- Iteration      1(  11)  ---------------------------------------


    EDDIAG:  cpu time    0.1892: real time    0.1891
  RMM-DIIS:  cpu time    1.0886: real time    1.0877
    ORTHCH:  cpu time    0.0261: real time    0.0261
       DOS:  cpu time    0.0006: real time    0.0006
    --------------------------------------------
      LOOP:  cpu time    1.3044: real time    1.3034

 eigenvalue-minimisations  :   643
 total energy-change (2. order) :-0.3664985E+01  (-0.3751532E+01)
 number of electron     300.0000000 magnetization 
 augmentation part      300.0000000 magnetization 

 Free energy of the ion-electron system (eV)
  ---------------------------------------------------
  alpha Z        PSCENC =       256.70245505
  Ewald energy   TEWEN  =     -9887.82438888
  -Hartree energ DENC   =     -3370.01594424
  -exchange      EXHF   =         0.00000000
  -V(xc)+E(xc)   XCENC  =       792.03401158
  PAW double counting   =     10155.13001117   -10497.29644279
  entropy T*S    EENTRO =        -0.00000000
  eigenvalues    EBANDS =     -3644.96091985
  atomic energy  EATOM  =     15932.49537490
  Solvation  Ediel_sol  =         0.00000000
  ---------------------------------------------------
  free energy    TOTEN  =      -263.73584306 eV

  energy without entropy =     -263.73584306  energy(sigma->0) =     -263.73584306


--------------------------------------------------------------------------------------------------------




--------------------------------------- Iteration      1(  12)  ---------------------------------------


    EDDIAG:  cpu time    0.1919: real time    0.1917
  RMM-DIIS:  cpu time    1.0883: real time    1.0874
    ORTHCH:  cpu time    0.0269: real time    0.0270
       DOS:  cpu time    0.0008: real time    0.0008
    CHARGE:  cpu time    0.0428: real time    0.0470
    MIXING:  cpu time    0.0061: real time    0.0087
    --------------------------------------------
      LOOP:  cpu time    1.3569: real time    1.3626

 eigenvalue-minimisations  :   635
 total energy-change (2. order) :-0.2262709E+01  (-0.2264313E+01)
 number of electron     299.9999855 magnetization 
 augmentation part        2.0084152 magnetization 

 Broyden mixing:
  rms(total) = 0.38754E+01    rms(broyden)= 0.38738E+01
  rms(prec ) = 0.41339E+01
  weight for this iteration     100.00

 Free energy of the ion-electron system (eV)
  ---------------------------------------------------
  alpha Z        PSCENC =       256.70245505
  Ewald energy   TEWEN  =     -9887.82438888
  -Hartree energ DENC   =     -3370.01594424
  -exchange      EXHF   =         0.00000000
  -V(xc)+E(xc)   XCENC  =       792.03401158
  PAW double counting   =     10155.13001117   -10497.29644279
  entropy T*S    EENTRO =        -0.00000000
  eigenvalues    EBANDS =     -3647.22362925
  atomic energy  EATOM  =     15932.49537490
  Solvation  Ediel_sol  =         0.00000000
  ---------------------------------------------------
  free energy    TOTEN  =      -265.99855246 eV

  energy without entropy =     -265.99855246  energy(sigma->0) =     -265.99855246


--------------------------------------------------------------------------------------------------------




--------------------------------------- Iteration      1(  13)  ---------------------------------------


    POTLOK:  cpu time    0.0717: real time    0.0717
    SETDIJ:  cpu time    0.0146: real time    0.0146
    EDDIAG:  cpu time    0.1839: real time    0.1838
  RMM-DIIS:  cpu time    0.8375: real time    0.8369
    ORTHCH:  cpu time    0.0260: real time    0.0259
       DOS:  cpu time    0.0007: real time    0.0008
    CHARGE:  cpu time    0.0410: real time    0.0409
    MIXING:  cpu time    0.0036: real time    0.0043
    --------------------------------------------
      LOOP:  cpu time    1.1790: real time    1.1789

 eigenvalue-minimisations  :   493
 total energy-change (2. order) : 0.9119664E+01  (-0.2302147E+01)
 number of electron     299.9999858 magnetization 
 augmentation part        2.1819354 magnetization 

 Broyden mixing:
  rms(total) = 0.25199E+01    rms(broyden)= 0.25199E+01
  rms(prec ) = 0.26180E+01
  weight for this iteration     100.00

 eigenvalues of (default mixing * dielectric matrix)
  average eigenvalue GAMMA=   2.2923
  2.2923

 Free energy of the ion-electron system (eV)
  ---------------------------------------------------
  alpha Z        PSCENC =       256.70245505
  Ewald energy   TEWEN  =     -9887.82438888
  -Hartree energ DENC   =     -3453.12568039
  -exchange      EXHF   =         0.00000000
  -V(xc)+E(xc)   XCENC  =       798.15423585
  PAW double counting   =     13987.93398186   -14336.68008229
  entropy T*S    EENTRO =        -0.00000000
  eigenvalues    EBANDS =     -3554.53478480
  atomic energy  EATOM  =     15932.49537490
  Solvation  Ediel_sol  =         0.00000000
  ---------------------------------------------------
  free energy    TOTEN  =      -256.87888871 eV

  energy without entropy =     -256.87888871  energy(sigma->0) =     -256.87888871


--------------------------------------------------------------------------------------------------------




--------------------------------------- Iteration      1(  14)  ---------------------------------------


    POTLOK:  cpu time    0.0704: real time    0.0703
    SETDIJ:  cpu time    0.0148: real time    0.0148
    EDDIAG:  cpu time    0.1825: real time    0.1824
  RMM-DIIS:  cpu time    0.8957: real time    0.8949
    ORTHCH:  cpu time    0.0261: real time    0.0261
       DOS:  cpu time    0.0008: real time    0.0008
    CHARGE:  cpu time    0.0406: real time    0.0406
    MIXING:  cpu time    0.0034: real time    0.0034
    --------------------------------------------
      LOOP:  cpu time    1.2343: real time    1.2334

 eigenvalue-minimisations  :   519
 total energy-change (2. order) : 0.1026364E+01  (-0.1966502E+01)
 number of electron     299.9999860 magnetization 
 augmentation part        2.0171100 magnetization 

 Broyden mixing:
  rms(total) = 0.67242E+00    rms(broyden)= 0.67231E+00
  rms(prec ) = 0.71666E+00
  weight for this iteration     100.00

 eigenvalues of (default mixing * dielectric matrix)
  average eigenvalue GAMMA=   1.9355
  1.4434  2.4275

 Free energy of the ion-electron system (eV)
  ---------------------------------------------------
  alpha Z        PSCENC =       256.70245505
  Ewald energy   TEWEN  =     -9887.82438888
  -Hartree energ DENC   =     -3538.26679384
  -exchange      EXHF   =         0.00000000
  -V(xc)+E(xc)   XCENC  =       804.81428041
  PAW double counting   =     21563.28968604   -21919.93238776
  entropy T*S    EENTRO =        -0.00000000
  eigenvalues    EBANDS =     -3467.13075059
  atomic energy  EATOM  =     15932.49537490
  Solvation  Ediel_sol  =         0.00000000
  ---------------------------------------------------
  free energy    TOTEN  =      -255.85252467 eV

  energy without entropy =     -255.85252467  energy(sigma->0) =     -255.85252467


--------------------------------------------------------------------------------------------------------




--------------------------------------- Iteration      1(  15)  ---------------------------------------


    POTLOK:  cpu time    0.0709: real time    0.0709
    SETDIJ:  cpu time    0.0147: real time    0.0147
    EDDIAG:  cpu time    0.1837: real time    0.1835
  RMM-DIIS:  cpu time    1.0267: real time    1.0259
    ORTHCH:  cpu time    0.0258: real time    0.0258
       DOS:  cpu time    0.0008: real time    0.0008
    CHARGE:  cpu time    0.0411: real time    0.0410
    MIXING:  cpu time    0.0036: real time    0.0036
    --------------------------------------------
      LOOP:  cpu time    1.3673: real time    1.3662

 eigenvalue-minimisations  :   589
 total energy-change (2. order) :-0.1171215E+00  (-0.4278790E+00)
 number of electron     299.9999861 magnetization 
 augmentation part        1.6353831 magnetization 

 Broyden mixing:
  rms(total) = 0.16873E+00    rms(broyden)= 0.16825E+00
  rms(prec ) = 0.18825E+00
  weight for this iteration     100.00

 eigenvalues of (default mixing * dielectric matrix)
  average eigenvalue GAMMA=   1.6055
  2.3620  1.1328  1.3218

 Free energy of the ion-electron system (eV)
  ---------------------------------------------------
  alpha Z        PSCENC =       256.70245505
  Ewald energy   TEWEN  =     -9887.82438888
  -Hartree energ DENC   =     -3537.06358431
  -exchange      EXHF   =         0.00000000
  -V(xc)+E(xc)   XCENC  =       804.98035975
  PAW double counting   =     23404.78530400   -23763.45551625
  entropy T*S    EENTRO =        -0.00000000
  eigenvalues    EBANDS =     -3466.58965039
  atomic energy  EATOM  =     15932.49537490
  Solvation  Ediel_sol  =         0.00000000
  ---------------------------------------------------
  free energy    TOTEN  =      -255.96964613 eV

  energy without entropy =     -255.96964613  energy(sigma->0) =     -255.96964613


--------------------------------------------------------------------------------------------------------




--------------------------------------- Iteration      1(  16)  ---------------------------------------


    POTLOK:  cpu time    0.0698: real time    0.0698
    SETDIJ:  cpu time    0.0148: real time    0.0148
    EDDIAG:  cpu time    0.1826: real time    0.1824
  RMM-DIIS:  cpu time    1.1043: real time    1.1033
    ORTHCH:  cpu time    0.0294: real time    0.0295
       DOS:  cpu time    0.0008: real time    0.0008
    CHARGE:  cpu time    0.0495: real time    0.0494
    MIXING:  cpu time    0.0044: real time    0.0044
    --------------------------------------------
      LOOP:  cpu time    1.4555: real time    1.4543

 eigenvalue-minimisations  :   632
 total energy-change (2. order) :-0.1202976E+00  (-0.1602956E+00)
 number of electron     299.9999861 magnetization 
 augmentation part        1.4011232 magnetization 

 Broyden mixing:
  rms(total) = 0.13383E+00    rms(broyden)= 0.13343E+00
  rms(prec ) = 0.14550E+00
  weight for this iteration     100.00

 eigenvalues of (default mixing * dielectric matrix)
  average eigenvalue GAMMA=   1.7685
  1.0867  2.0733  1.9571  1.9571

 Free energy of the ion-electron system (eV)
  ---------------------------------------------------
  alpha Z        PSCENC =       256.70245505
  Ewald energy   TEWEN  =     -9887.82438888
  -Hartree energ DENC   =     -3538.47942834
  -exchange      EXHF   =         0.00000000
  -V(xc)+E(xc)   XCENC  =       805.15625366
  PAW double counting   =     23270.36350329   -23629.26343638
  entropy T*S    EENTRO =        -0.00000000
  eigenvalues    EBANDS =     -3465.24027706
  atomic energy  EATOM  =     15932.49537490
  Solvation  Ediel_sol  =         0.00000000
  ---------------------------------------------------
  free energy    TOTEN  =      -256.08994375 eV

  energy without entropy =     -256.08994375  energy(sigma->0) =     -256.08994375


--------------------------------------------------------------------------------------------------------




--------------------------------------- Iteration      1(  17)  ---------------------------------------


    POTLOK:  cpu time    0.0777: real time    0.0777
    SETDIJ:  cpu time    0.0149: real time    0.0148
    EDDIAG:  cpu time    0.1948: real time    0.1948
  RMM-DIIS:  cpu time    1.1661: real time    1.1652
    ORTHCH:  cpu time    0.0303: real time    0.0302
       DOS:  cpu time    0.0009: real time    0.0009
    CHARGE:  cpu time    0.0469: real time    0.0469
    MIXING:  cpu time    0.0045: real time    0.0045
    --------------------------------------------
      LOOP:  cpu time    1.5360: real time    1.5350

 eigenvalue-minimisations  :   610
 total energy-change (2. order) :-0.9306582E-01  (-0.9022481E-01)
 number of electron     299.9999862 magnetization 
 augmentation part        1.2807848 magnetization 

 Broyden mixing:
  rms(total) = 0.49081E-01    rms(broyden)= 0.48631E-01
  rms(prec ) = 0.55276E-01
  weight for this iteration     100.00

 eigenvalues of (default mixing * dielectric matrix)
  average eigenvalue GAMMA=   1.8015
  2.4917  2.4917  0.9411  1.7795  1.3037

 Free energy of the ion-electron system (eV)
  ---------------------------------------------------
  alpha Z        PSCENC =       256.70245505
  Ewald energy   TEWEN  =     -9887.82438888
  -Hartree energ DENC   =     -3544.09080832
  -exchange      EXHF   =         0.00000000
  -V(xc)+E(xc)   XCENC  =       805.69713444
  PAW double counting   =     23146.30881632   -23505.53223377
  entropy T*S    EENTRO =        -0.00000000
  eigenvalues    EBANDS =     -3459.93935931
  atomic energy  EATOM  =     15932.49537490
  Solvation  Ediel_sol  =         0.00000000
  ---------------------------------------------------
  free energy    TOTEN  =      -256.18300957 eV

  energy without entropy =     -256.18300957  energy(sigma->0) =     -256.18300957


--------------------------------------------------------------------------------------------------------




--------------------------------------- Iteration      1(  18)  ---------------------------------------


    POTLOK:  cpu time    0.0717: real time    0.0717
    SETDIJ:  cpu time    0.0148: real time    0.0148
    EDDIAG:  cpu time    0.1839: real time    0.1837
  RMM-DIIS:  cpu time    1.0391: real time    1.0383
    ORTHCH:  cpu time    0.0277: real time    0.0277
       DOS:  cpu time    0.0010: real time    0.0010
    CHARGE:  cpu time    0.0406: real time    0.0405
    MIXING:  cpu time    0.0039: real time    0.0039
    --------------------------------------------
      LOOP:  cpu time    1.3827: real time    1.3815

 eigenvalue-minimisations  :   608
 total energy-change (2. order) :-0.6104808E-01  (-0.6158586E-01)
 number of electron     299.9999862 magnetization 
 augmentation part        1.1922555 magnetization 

 Broyden mixing:
  rms(total) = 0.20057E-01    rms(broyden)= 0.19324E-01
  rms(prec ) = 0.22621E-01
  weight for this iteration     100.00

 eigenvalues of (default mixing * dielectric matrix)
  average eigenvalue GAMMA=   1.7081
  2.7028  2.7028  1.5475  1.5475  0.9952  0.7525

 Free energy of the ion-electron system (eV)
  ---------------------------------------------------
  alpha Z        PSCENC =       256.70245505
  Ewald energy   TEWEN  =     -9887.82438888
  -Hartree energ DENC   =     -3548.31736429
  -exchange      EXHF   =         0.00000000
  -V(xc)+E(xc)   XCENC  =       806.03729762
  PAW double counting   =     23136.07451588   -23495.08991991
  entropy T*S    EENTRO =        -0.00000000
  eigenvalues    EBANDS =     -3456.32202802
  atomic energy  EATOM  =     15932.49537490
  Solvation  Ediel_sol  =         0.00000000
  ---------------------------------------------------
  free energy    TOTEN  =      -256.24405766 eV

  energy without entropy =     -256.24405766  energy(sigma->0) =     -256.24405766


--------------------------------------------------------------------------------------------------------




--------------------------------------- Iteration      1(  19)  ---------------------------------------


    POTLOK:  cpu time    0.0691: real time    0.0691
    SETDIJ:  cpu time    0.0148: real time    0.0148
    EDDIAG:  cpu time    0.1812: real time    0.1810
  RMM-DIIS:  cpu time    1.0657: real time    1.0650
    ORTHCH:  cpu time    0.0275: real time    0.0275
       DOS:  cpu time    0.0009: real time    0.0009
    CHARGE:  cpu time    0.0406: real time    0.0406
    MIXING:  cpu time    0.0045: real time    0.0045
    --------------------------------------------
      LOOP:  cpu time    1.4044: real time    1.4035

 eigenvalue-minimisations  :   620
 total energy-change (2. order) :-0.3959421E-01  (-0.4032537E-01)
 number of electron     299.9999862 magnetization 
 augmentation part        1.1120422 magnetization 

 Broyden mixing:
  rms(total) = 0.21516E-01    rms(broyden)= 0.21008E-01
  rms(prec ) = 0.22821E-01
  weight for this iteration     100.00

 eigenvalues of (default mixing * dielectric matrix)
  average eigenvalue GAMMA=   1.4846
  2.7050  2.7050  1.5554  1.5554  0.9927  0.6827  0.1961

 Free energy of the ion-electron system (eV)
  ---------------------------------------------------
  alpha Z        PSCENC =       256.70245505
  Ewald energy   TEWEN  =     -9887.82438888
  -Hartree energ DENC   =     -3549.67138576
  -exchange      EXHF   =         0.00000000
  -V(xc)+E(xc)   XCENC  =       806.13700544
  PAW double counting   =     23122.11415447   -23480.75727250
  entropy T*S    EENTRO =        -0.00000000
  eigenvalues    EBANDS =     -3455.47959458
  atomic energy  EATOM  =     15932.49537490
  Solvation  Ediel_sol  =         0.00000000
  ---------------------------------------------------
  free energy    TOTEN  =      -256.28365187 eV

  energy without entropy =     -256.28365187  energy(sigma->0) =     -256.28365187


--------------------------------------------------------------------------------------------------------




--------------------------------------- Iteration      1(  20)  ---------------------------------------


    POTLOK:  cpu time    0.0692: real time    0.0694
    SETDIJ:  cpu time    0.0147: real time    0.0147
    EDDIAG:  cpu time    0.1825: real time    0.1823
  RMM-DIIS:  cpu time    1.0778: real time    1.0770
    ORTHCH:  cpu time    0.0279: real time    0.0279
       DOS:  cpu time    0.0010: real time    0.0010
    CHARGE:  cpu time    0.0412: real time    0.0412
    MIXING:  cpu time    0.0042: real time    0.0042
    --------------------------------------------
      LOOP:  cpu time    1.4185: real time    1.4178

 eigenvalue-minimisations  :   636
 total energy-change (2. order) :-0.1862250E-01  (-0.1921698E-01)
 number of electron     299.9999863 magnetization 
 augmentation part        1.0680928 magnetization 

 Broyden mixing:
  rms(total) = 0.27599E-01    rms(broyden)= 0.27429E-01
  rms(prec ) = 0.29922E-01
  weight for this iteration     100.00

 eigenvalues of (default mixing * dielectric matrix)
  average eigenvalue GAMMA=   1.5334
  2.5893  2.5893  1.2222  1.8172  1.4519  0.9554  0.9554  0.6867

 Free energy of the ion-electron system (eV)
  ---------------------------------------------------
  alpha Z        PSCENC =       256.70245505
  Ewald energy   TEWEN  =     -9887.82438888
  -Hartree energ DENC   =     -3549.91613361
  -exchange      EXHF   =         0.00000000
  -V(xc)+E(xc)   XCENC  =       806.15393276
  PAW double counting   =     23128.47326470   -23486.97638391
  entropy T*S    EENTRO =        -0.00000000
  eigenvalues    EBANDS =     -3455.41039540
  atomic energy  EATOM  =     15932.49537490
  Solvation  Ediel_sol  =         0.00000000
  ---------------------------------------------------
  free energy    TOTEN  =      -256.30227437 eV

  energy without entropy =     -256.30227437  energy(sigma->0) =     -256.30227437


--------------------------------------------------------------------------------------------------------




--------------------------------------- Iteration      1(  21)  ---------------------------------------


    POTLOK:  cpu time    0.0686: real time    0.0686
    SETDIJ:  cpu time    0.0147: real time    0.0147
    EDDIAG:  cpu time    0.1808: real time    0.1807
  RMM-DIIS:  cpu time    1.0515: real time    1.0506
    ORTHCH:  cpu time    0.0277: real time    0.0277
       DOS:  cpu time    0.0009: real time    0.0009
    CHARGE:  cpu time    0.0407: real time    0.0407
    MIXING:  cpu time    0.0046: real time    0.0046
    --------------------------------------------
      LOOP:  cpu time    1.3895: real time    1.3884

 eigenvalue-minimisations  :   613
 total energy-change (2. order) :-0.1230106E-01  (-0.1403059E-01)
 number of electron     299.9999863 magnetization 
 augmentation part        1.0348668 magnetization 

 Broyden mixing:
  rms(total) = 0.49515E-01    rms(broyden)= 0.49454E-01
  rms(prec ) = 0.54396E-01
  weight for this iteration     100.00

 eigenvalues of (default mixing * dielectric matrix)
  average eigenvalue GAMMA=   1.5816
  2.6524  2.6524  2.5780  1.1260  1.1260  1.2636  1.2636  0.9412  0.6311

 Free energy of the ion-electron system (eV)
  ---------------------------------------------------
  alpha Z        PSCENC =       256.70245505
  Ewald energy   TEWEN  =     -9887.82438888
  -Hartree energ DENC   =     -3549.96669029
  -exchange      EXHF   =         0.00000000
  -V(xc)+E(xc)   XCENC  =       806.14462618
  PAW double counting   =     23130.68399247   -23489.42687748
  entropy T*S    EENTRO =        -0.00000000
  eigenvalues    EBANDS =     -3455.12306738
  atomic energy  EATOM  =     15932.49537490
  Solvation  Ediel_sol  =         0.00000000
  ---------------------------------------------------
  free energy    TOTEN  =      -256.31457543 eV

  energy without entropy =     -256.31457543  energy(sigma->0) =     -256.31457543


--------------------------------------------------------------------------------------------------------




--------------------------------------- Iteration      1(  22)  ---------------------------------------


    POTLOK:  cpu time    0.0683: real time    0.0682
    SETDIJ:  cpu time    0.0148: real time    0.0148
    EDDIAG:  cpu time    0.1818: real time    0.1816
  RMM-DIIS:  cpu time    1.0289: real time    1.0279
    ORTHCH:  cpu time    0.0280: real time    0.0281
       DOS:  cpu time    0.0009: real time    0.0009
    CHARGE:  cpu time    0.0411: real time    0.0410
    MIXING:  cpu time    0.0048: real time    0.0048
    --------------------------------------------
      LOOP:  cpu time    1.3685: real time    1.3672

 eigenvalue-minimisations  :   602
 total energy-change (2. order) :-0.6756436E-02  (-0.7547785E-02)
 number of electron     299.9999863 magnetization 
 augmentation part        1.0026667 magnetization 

 Broyden mixing:
  rms(total) = 0.21747E-01    rms(broyden)= 0.21694E-01
  rms(prec ) = 0.23454E-01
  weight for this iteration     100.00

 eigenvalues of (default mixing * dielectric matrix)
  average eigenvalue GAMMA=   1.6110
  3.5688  2.4250  2.4250  1.5366  1.5366  1.2625  1.2625  0.9187  0.5870  0.5870

 Free energy of the ion-electron system (eV)
  ---------------------------------------------------
  alpha Z        PSCENC =       256.70245505
  Ewald energy   TEWEN  =     -9887.82438888
  -Hartree energ DENC   =     -3551.34283719
  -exchange      EXHF   =         0.00000000
  -V(xc)+E(xc)   XCENC  =       806.25892432
  PAW double counting   =     23133.21437072   -23490.83798746
  entropy T*S    EENTRO =        -0.00000000
  eigenvalues    EBANDS =     -3454.98724333
  atomic energy  EATOM  =     15932.49537490
  Solvation  Ediel_sol  =         0.00000000
  ---------------------------------------------------
  free energy    TOTEN  =      -256.32133187 eV

  energy without entropy =     -256.32133187  energy(sigma->0) =     -256.32133187


--------------------------------------------------------------------------------------------------------




--------------------------------------- Iteration      1(  23)  ---------------------------------------


    POTLOK:  cpu time    0.0689: real time    0.0689
    SETDIJ:  cpu time    0.0149: real time    0.0148
    EDDIAG:  cpu time    0.1834: real time    0.1834
  RMM-DIIS:  cpu time    1.1223: real time    1.1213
    ORTHCH:  cpu time    0.0274: real time    0.0273
       DOS:  cpu time    0.0007: real time    0.0007
    CHARGE:  cpu time    0.0406: real time    0.0406
    MIXING:  cpu time    0.0049: real time    0.0049
    --------------------------------------------
      LOOP:  cpu time    1.4631: real time    1.4620

 eigenvalue-minimisations  :   638
 total energy-change (2. order) :-0.4345270E-02  (-0.5205543E-02)
 number of electron     299.9999863 magnetization 
 augmentation part        0.9794894 magnetization 

 Broyden mixing:
  rms(total) = 0.71484E-02    rms(broyden)= 0.70546E-02
  rms(prec ) = 0.76901E-02
  weight for this iteration     100.00

 eigenvalues of (default mixing * dielectric matrix)
  average eigenvalue GAMMA=   1.5984
  3.8475  2.5794  2.5794  1.7050  1.7050  1.2317  1.2317  0.9186  0.6260  0.6260
  0.5325

 Free energy of the ion-electron system (eV)
  ---------------------------------------------------
  alpha Z        PSCENC =       256.70245505
  Ewald energy   TEWEN  =     -9887.82438888
  -Hartree energ DENC   =     -3551.71720625
  -exchange      EXHF   =         0.00000000
  -V(xc)+E(xc)   XCENC  =       806.30123235
  PAW double counting   =     23143.40553873   -23500.52169445
  entropy T*S    EENTRO =        -0.00000000
  eigenvalues    EBANDS =     -3455.16698859
  atomic energy  EATOM  =     15932.49537490
  Solvation  Ediel_sol  =         0.00000000
  ---------------------------------------------------
  free energy    TOTEN  =      -256.32567714 eV

  energy without entropy =     -256.32567714  energy(sigma->0) =     -256.32567714


--------------------------------------------------------------------------------------------------------




--------------------------------------- Iteration      1(  24)  ---------------------------------------


    POTLOK:  cpu time    0.0686: real time    0.0685
    SETDIJ:  cpu time    0.0146: real time    0.0146
    EDDIAG:  cpu time    0.1779: real time    0.1778
  RMM-DIIS:  cpu time    1.1744: real time    1.1735
    ORTHCH:  cpu time    0.0301: real time    0.0301
       DOS:  cpu time    0.0008: real time    0.0008
    CHARGE:  cpu time    0.0485: real time    0.0484
    MIXING:  cpu time    0.0059: real time    0.0059
    --------------------------------------------
      LOOP:  cpu time    1.5207: real time    1.5196

 eigenvalue-minimisations  :   638
 total energy-change (2. order) :-0.3818563E-02  (-0.3998276E-02)
 number of electron     299.9999863 magnetization 
 augmentation part        0.9599114 magnetization 

 Broyden mixing:
  rms(total) = 0.51316E-02    rms(broyden)= 0.49945E-02
  rms(prec ) = 0.60123E-02
  weight for this iteration     100.00

 eigenvalues of (default mixing * dielectric matrix)
  average eigenvalue GAMMA=   1.5915
  4.3201  2.5988  2.3809  1.7651  1.7651  0.8231  0.8231  1.1805  1.1805  0.9227
  0.6694  0.6694

 Free energy of the ion-electron system (eV)
  ---------------------------------------------------
  alpha Z        PSCENC =       256.70245505
  Ewald energy   TEWEN  =     -9887.82438888
  -Hartree energ DENC   =     -3552.08728596
  -exchange      EXHF   =         0.00000000
  -V(xc)+E(xc)   XCENC  =       806.33450517
  PAW double counting   =     23149.00567947   -23505.85994747
  entropy T*S    EENTRO =        -0.00000000
  eigenvalues    EBANDS =     -3455.09588798
  atomic energy  EATOM  =     15932.49537490
  Solvation  Ediel_sol  =         0.00000000
  ---------------------------------------------------
  free energy    TOTEN  =      -256.32949570 eV

  energy without entropy =     -256.32949570  energy(sigma->0) =     -256.32949570


--------------------------------------------------------------------------------------------------------




--------------------------------------- Iteration      1(  25)  ---------------------------------------


    POTLOK:  cpu time    0.0793: real time    0.0793
    SETDIJ:  cpu time    0.0163: real time    0.0163
    EDDIAG:  cpu time    0.1926: real time    0.1925
  RMM-DIIS:  cpu time    1.0908: real time    1.0899
    ORTHCH:  cpu time    0.0278: real time    0.0277
[...]
      direct lattice vectors                 reciprocal lattice vectors
    10.250000000  0.000000000  0.000000000     0.097560976  0.000000000  0.000000000
     0.000000000 10.250000000  0.000000000     0.000000000  0.097560976  0.000000000
     0.000000000  0.000000000 12.350000000     0.000000000  0.000000000  0.080971660

  length of vectors
    10.250000000 10.250000000 12.350000000     0.097560976  0.097560976  0.080971660


 FORCES acting on ions
    electron-ion (+dipol)            ewald-force                    non-local-force                 convergence-correction
 -----------------------------------------------------------------------------------------------
   0.421E+01 -.272E+01 0.161E+02   -.270E+01 0.301E+01 -.157E+02   -.212E+01 0.105E+01 -.114E+01   0.324E-03 0.102E-02 -.227E-03
   -.414E+01 -.253E+02 0.357E+02   0.489E+01 0.257E+02 -.355E+02   -.508E+00 -.745E+00 -.187E-01   0.522E-04 -.429E-03 0.745E-03
   -.113E+02 0.474E+02 0.218E+01   0.993E+01 -.469E+02 -.236E+01   0.182E+01 -.767E+00 0.554E+00   0.161E-04 0.777E-03 0.248E-03
   -.265E+01 -.349E+02 -.255E+01   0.208E+01 0.342E+02 0.349E+01   0.296E+00 0.986E+00 -.103E+01   -.666E-03 -.449E-04 -.181E-03
   0.325E+02 0.282E+02 -.124E+02   -.317E+02 -.274E+02 0.128E+02   -.104E+01 -.617E+00 -.383E+00   0.317E-03 0.726E-03 0.524E-03
   -.236E+02 -.238E+02 0.227E+02   0.219E+02 0.233E+02 -.226E+02   0.139E+01 0.447E+00 -.262E+00   -.933E-03 -.261E-03 0.214E-03
   0.134E+02 -.259E+01 -.325E+02   -.123E+02 0.355E+01 0.308E+02   -.929E+00 -.116E+01 0.176E+01   -.244E-03 -.382E-03 -.249E-03
   0.769E+01 0.205E+02 -.241E+02   -.777E+01 -.198E+02 0.246E+02   0.379E+00 -.114E+01 -.623E+00   0.218E-02 0.121E-03 0.764E-03
   0.206E+02 -.338E+00 0.331E+02   -.210E+02 0.219E+00 -.330E+02   0.161E+00 0.344E+00 -.239E+00   -.243E-03 -.175E-04 -.265E-03
   -.115E+02 -.752E+01 -.135E+02   0.105E+02 0.678E+01 0.130E+02   0.983E+00 0.851E+00 0.316E+00   -.848E-03 -.119E-02 -.135E-02
   -.995E+01 0.259E+02 0.722E+01   0.944E+01 -.244E+02 -.707E+01   0.397E+00 -.169E+01 0.681E-01   0.167E-02 -.923E-03 0.126E-03
   0.391E+00 -.148E+02 0.247E+01   -.970E+00 0.140E+02 -.266E+01   0.269E+00 0.462E+00 0.423E-01   -.334E-03 -.912E-03 -.277E-03
   -.379E+02 -.682E+01 0.248E+02   0.368E+02 0.632E+01 -.251E+02   0.238E+01 0.453E+00 -.305E-01   -.120E-02 0.207E-03 0.873E-03
   0.390E+01 0.676E+01 -.452E+01   -.474E+01 -.569E+01 0.492E+01   0.103E+01 -.914E+00 -.827E+00   -.324E-03 -.204E-03 -.475E-03
   0.158E+02 -.142E+02 -.113E+02   -.147E+02 0.137E+02 0.110E+02   -.556E+00 0.169E+00 0.889E+00   0.197E-02 -.479E-03 0.203E-03
   -.126E+02 0.127E+02 0.933E+01   0.129E+02 -.125E+02 -.755E+01   0.503E+00 0.631E+00 -.185E+01   0.436E-03 0.130E-02 0.112E-02
   0.194E+02 0.159E+02 0.313E+01   -.178E+02 -.149E+02 -.284E+01   -.109E+01 -.128E+01 -.574E+00   0.638E-03 0.367E-03 -.825E-04
   -.259E+02 0.866E+01 0.149E+02   0.254E+02 -.961E+01 -.146E+02   0.178E+01 0.931E+00 -.229E+00   0.129E-02 -.692E-03 0.104E-02
   0.233E+02 0.175E+02 0.112E+02   -.222E+02 -.164E+02 -.101E+02   -.157E+01 -.656E+00 -.171E+01   0.148E-02 0.507E-03 -.812E-03
   -.687E+01 -.309E+02 -.425E+01   0.663E+01 0.305E+02 0.369E+01   0.344E+00 0.794E+00 0.544E+00   0.290E-03 -.451E-03 -.341E-03
   0.184E+02 -.139E+01 -.143E+01   -.169E+02 0.192E+01 0.154E+00   -.138E+01 -.733E+00 0.121E+01   0.341E-03 -.575E-03 -.438E-03
   0.195E+02 -.504E+01 -.466E+01   -.195E+02 0.514E+01 0.421E+01   -.224E+00 -.224E+00 0.429E+00   0.484E-03 -.107E-03 -.963E-03
   -.424E+01 0.196E+02 -.500E+01   0.389E+01 -.194E+02 0.627E+01   -.266E+00 -.241E+00 -.922E+00   -.142E-02 0.321E-03 0.364E-03
   -.119E+02 0.408E+02 -.199E+02   0.106E+02 -.408E+02 0.194E+02   0.179E+01 -.730E+00 0.515E+00   -.139E-02 0.596E-03 0.718E-04
   -.301E+01 0.357E+02 -.168E+02   0.348E+01 -.352E+02 0.166E+02   -.282E+00 -.260E+00 0.426E-01   -.138E-02 0.759E-03 0.394E-03
   0.987E+01 -.122E+02 -.221E+01   -.857E+01 0.127E+02 0.196E+01   -.133E+01 -.540E+00 0.215E+00   0.403E-04 -.745E-03 -.154E-03
   -.213E+02 0.357E+01 -.444E+02   0.213E+02 -.345E+01 0.428E+02   0.162E+00 0.152E-02 0.170E+01   -.763E-03 0.132E-04 0.188E-03
   -.590E+01 0.408E+02 0.223E+02   0.530E+01 -.415E+02 -.214E+02   -.503E-01 -.247E+00 -.914E+00   -.645E-03 0.780E-03 -.650E-04
   0.183E+01 0.235E+02 0.790E+01   -.270E+01 -.232E+02 -.741E+01   0.102E+01 -.284E+00 -.419E-01   0.503E-03 -.300E-03 -.625E-03
   -.129E+02 -.176E+02 -.178E+02   0.121E+02 0.188E+02 0.169E+02   0.437E+00 -.871E+00 0.104E+01   -.959E-03 -.332E-03 0.856E-03
   0.200E+01 -.456E+02 0.375E+02   -.898E+01 0.501E+02 -.470E+02   0.645E+01 -.347E+01 0.886E+01   0.157E-02 -.173E-02 0.168E-02
   -.391E+02 0.525E+02 0.124E+02   0.444E+02 -.653E+02 -.132E+02   -.581E+01 0.110E+02 0.118E+00   0.251E-03 0.449E-03 -.190E-02
   0.202E+02 -.468E+02 0.297E+01   -.274E+02 0.550E+02 -.410E+01   0.695E+01 -.855E+01 0.214E+00   -.260E-02 -.240E-02 -.134E-02
   -.147E+02 -.729E+01 -.131E+02   0.176E+02 0.179E+01 0.209E+02   -.291E+01 0.274E+01 -.710E+01   -.308E-03 -.292E-03 0.914E-03
   0.740E+01 0.513E+01 -.166E+02   -.479E+01 -.164E+02 0.198E+02   -.148E+01 0.109E+02 -.309E+01   -.704E-03 0.102E-02 0.529E-03
   0.773E+02 -.361E+02 0.282E+02   -.863E+02 0.371E+02 -.282E+02   0.101E+02 -.136E+01 0.357E+00   0.210E-02 0.228E-02 -.286E-03
   0.750E+02 0.281E+02 -.663E+02   -.760E+02 -.304E+02 0.704E+02   0.135E+01 0.245E+01 -.477E+01   0.349E-02 -.146E-02 -.271E-03
   0.137E+02 0.548E+02 -.241E+02   -.154E+02 -.592E+02 0.329E+02   0.195E+01 0.440E+01 -.971E+01   0.221E-02 -.238E-03 -.113E-04
   -.513E+01 -.904E+02 0.615E+02   0.439E+01 0.939E+02 -.623E+02   0.972E+00 -.106E+01 0.271E+00   -.167E-02 -.364E-02 0.162E-02
   0.745E+02 -.763E+02 0.193E+02   -.769E+02 0.778E+02 -.185E+02   0.294E+01 -.897E+00 -.827E+00   -.189E-03 -.825E-03 -.361E-03
   -.866E+02 -.945E+01 0.524E+02   0.943E+02 0.124E+02 -.536E+02   -.697E+01 -.227E+01 0.119E+01   -.313E-02 -.514E-03 0.126E-02
   -.828E+02 -.235E+02 -.368E+02   0.861E+02 0.235E+02 0.370E+02   -.328E+01 -.321E+00 0.652E+00   -.115E-02 -.150E-02 -.521E-03
   -.394E+02 -.396E+02 -.466E+02   0.405E+02 0.424E+02 0.473E+02   -.506E+00 -.171E+01 -.110E+00   0.101E-02 -.496E-03 0.170E-04
   -.803E+02 -.498E+02 -.551E+02   0.872E+02 0.551E+02 0.570E+02   -.700E+01 -.536E+01 -.203E+01   -.366E-02 -.116E-02 -.529E-03
   0.165E+02 -.283E+01 0.605E+02   -.164E+02 0.467E+01 -.640E+02   -.530E+00 -.203E+01 0.455E+01   0.426E-03 -.118E-02 -.699E-03
   0.344E+02 -.219E+02 -.444E+01   -.335E+02 0.206E+02 0.365E+01   -.181E+01 0.289E+01 0.143E+01   0.108E-02 -.393E-02 -.817E-03
   0.179E+01 -.103E+03 -.493E+02   -.296E+01 0.109E+03 0.530E+02   0.661E+00 -.366E+01 -.191E+01   -.198E-03 -.358E-02 -.451E-03
   -.207E+02 0.834E+02 0.516E+02   0.208E+02 -.863E+02 -.527E+02   -.222E+00 0.404E+01 0.131E+01   -.322E-02 0.918E-03 -.992E-05
   0.229E+02 -.782E+02 0.404E+02   -.235E+02 0.800E+02 -.436E+02   0.352E+00 -.181E+01 0.246E+01   -.111E-02 -.111E-03 0.171E-02
   0.241E+02 0.145E+03 -.861E+02   -.270E+02 -.150E+03 0.881E+02   0.336E+01 0.502E+01 -.162E+01   -.690E-02 0.169E-02 -.367E-02
   -.258E+02 0.575E+02 -.189E+02   0.260E+02 -.571E+02 0.191E+02   -.583E+00 -.110E+01 -.353E+00   -.677E-03 0.406E-02 0.176E-02
   0.445E+02 0.617E+02 0.257E+02   -.519E+02 -.660E+02 -.260E+02   0.666E+01 0.376E+01 0.988E+00   -.318E-03 0.963E-03 -.118E-02
   0.380E+02 0.293E+02 -.256E+02   -.383E+02 -.288E+02 0.260E+02   0.347E+00 -.114E+01 -.394E+00   0.619E-02 0.169E-02 0.275E-02
   -.316E+02 -.174E+02 -.577E+01   0.313E+02 0.181E+02 0.570E+01   0.682E+00 -.158E+01 0.548E+00   -.162E-02 -.720E-03 0.193E-03
   -.247E+01 0.377E+02 0.494E+02   0.404E+01 -.441E+02 -.544E+02   -.203E+01 0.379E+01 0.334E+01   -.208E-03 0.457E-03 0.123E-02
   0.445E+01 -.963E+02 -.271E+02   -.452E+01 0.102E+03 0.290E+02   0.381E+00 -.404E+01 -.159E+01   0.573E-02 -.693E-03 -.296E-02
   0.578E+01 -.500E+02 0.134E+02   -.143E+01 0.540E+02 -.139E+02   -.493E+01 -.419E+01 -.631E+00   0.197E-02 0.596E-03 0.540E-03
   -.437E+02 0.190E+02 0.909E+02   0.472E+02 -.208E+02 -.942E+02   -.408E+01 0.262E+01 0.402E+01   0.944E-03 -.823E-03 -.586E-03
   0.498E+02 0.563E+02 0.548E+02   -.504E+02 -.598E+02 -.647E+02   0.201E+00 0.182E+01 0.102E+02   0.418E-02 0.315E-03 0.499E-03
   0.369E+02 0.786E+02 -.165E+02   -.371E+02 -.817E+02 0.186E+02   -.351E+00 0.234E+01 -.197E+01   0.126E-02 0.432E-02 0.185E-02
   0.239E+02 -.360E+02 0.156E+02   -.237E+02 0.359E+02 -.156E+02   -.867E+00 0.403E+00 0.151E-01   0.983E-03 -.107E-02 0.205E-03
   0.665E+01 -.211E+02 -.363E+02   -.713E+01 0.212E+02 0.370E+02   0.567E+00 0.206E+00 -.747E+00   -.197E-02 -.187E-02 -.184E-03
   0.225E+02 -.197E+02 -.416E+02   -.224E+02 0.202E+02 0.424E+02   -.349E+00 -.683E+00 -.466E+00   -.833E-03 0.460E-03 -.142E-02
   -.103E+03 0.819E+02 -.921E+01   0.105E+03 -.821E+02 0.911E+01   -.232E+01 -.283E+00 -.230E+00   -.782E-03 0.252E-02 0.166E-04
   -.136E+02 -.738E+02 -.345E+02   0.141E+02 0.741E+02 0.344E+02   -.284E+00 -.344E+00 0.610E-01   -.183E-02 -.144E-02 0.432E-03
 -----------------------------------------------------------------------------------------------
   -.142E+01 -.654E+01 -.160E+01   0.604E-13 0.426E-13 0.853E-13   0.142E+01 0.656E+01 0.161E+01   0.102E-02 -.849E-02 0.123E-02
 
 
 POSITION                                       TOTAL-FORCE (eV/Angst)
 -----------------------------------------------------------------------------------
      6.50576      9.16547      0.14553        -0.609681      1.343074     -0.790352
      7.44275      5.89094      7.55281         0.246552     -0.335978      0.230175
      2.23066      1.74455      0.29571         0.487179     -0.295151      0.372402
      1.65806      7.21860      2.46964        -0.284899      0.230653     -0.092442
      2.98959      2.01546      4.06789        -0.254732      0.110257     -0.064505
      2.11437      0.53042      8.16788        -0.269442     -0.031517     -0.117482
      7.57702      5.76514      2.66529         0.133315     -0.204028      0.077228
      5.24397      0.80592      3.75067         0.304676     -0.484367     -0.048052
     10.11100      9.49408      7.25337        -0.219844      0.224852     -0.160627
      9.53168      3.98566      2.83642        -0.001220      0.106913     -0.176579
      4.48840      9.96061      6.50143        -0.112153     -0.257300      0.224297
      9.17375      6.07881      0.18787        -0.309978     -0.419331     -0.149825
      0.05538      3.68819      9.09932         1.336005     -0.050493     -0.262928
      3.07812      5.32844      7.38314         0.180151      0.162894     -0.432062
      6.14439      2.44204     12.18780         0.571827     -0.342609      0.541141
      8.57833      1.97949     10.24740         0.773666      0.865020     -0.063237
      6.31885      5.53675     12.24420         0.513186     -0.276852     -0.292715
      4.56197      4.15562      5.37831         1.291102     -0.016038      0.072635
      4.95648      6.71573      1.93731        -0.485516      0.411435     -0.546358
      2.13806      7.56670     10.67350         0.101739      0.480159     -0.011296
      7.04777      2.53689      2.72243         0.187233     -0.195145     -0.072552
      9.97789      7.13606      8.97844        -0.253514     -0.120455     -0.020290
      0.26142      3.76008      5.54874        -0.622428     -0.037040      0.343268
      9.29008      2.21907      0.47318         0.501464     -0.738491     -0.053791
      7.29721      1.30943      5.55052         0.179219      0.246399     -0.099880
      5.58309      6.51410      9.57807        -0.037323     -0.068347     -0.033231
      6.40958      8.56751      3.03190         0.137247      0.125961      0.177960
      7.23168      0.49753      9.49897        -0.648191     -0.967463     -0.079368
      6.14299      2.86849      7.58171         0.151780     -0.043857      0.446115
      9.19048      8.95106      0.33653        -0.403260      0.351656      0.089382
      3.04294      6.22141      4.19316        -0.527373      1.046538     -0.669357
      2.87889      4.88764     10.94260        -0.513720     -1.790762     -0.731045
      0.97597      4.42144     12.15760        -0.243707     -0.373303     -0.919089
      2.02127      7.33406      6.00447        -0.043029     -2.757076      0.688971
     10.03310      6.37939      5.63520         1.124926     -0.395424      0.162943
      3.76556      1.10783      9.92066         1.091645     -0.368511      0.438112
      3.92068      9.12356      2.75092         0.297621      0.103077     -0.681108
      4.49244      9.38979     10.23400         0.229291      0.064731     -0.921935
      2.04653      9.28675      6.00821         0.237882      2.432054     -0.510502
      8.68470      7.55551      6.71055         0.607224      0.642305     -0.021034
      0.27271      1.96227      7.27592         0.760180      0.661233     -0.058200
      5.15994      6.30856      4.13611         0.017666     -0.384517      0.904110
      4.02479      6.36239     11.74850         0.689824      1.056240      0.608461
      1.90090      3.92983      1.69800        -0.161182     -0.115066     -0.193477
      1.87820      5.73076      9.18626        -0.483739     -0.192792      0.998113
      7.90873      3.78489      0.93460        -0.908328      1.605448      0.626628
      7.89568      5.71292     10.07520        -0.502177      3.253228      1.788955
      0.76927      2.50699     11.10660        -0.134522      1.093881      0.225509
      9.74768      6.64395      3.60083        -0.273008     -0.013796     -0.779656
      0.82400      2.21206      2.28041         0.453740      0.090116      0.407290
      8.04798      0.54193     11.84390        -0.412098     -0.678730     -0.155184
      8.60294      1.22740      7.48625        -0.713053     -0.504196      0.665694
      4.89901      1.89578      5.73222        -0.015171     -0.619190      0.009099
      7.10933      7.40891      1.08392         0.425230     -0.863677      0.475195
      8.20144      4.08758      9.06349        -0.468541     -2.614382     -1.606935
      4.60672      1.85438      1.77534         0.311951      1.745032      0.287731
      5.49958      2.33654     10.00990        -0.585051     -0.191193     -1.174331
      5.71241      8.73364      8.53602        -0.593483      0.796108      0.661187
      4.23870      0.06979      0.96822        -0.437662     -1.712032      0.333577
      2.45820      4.45408      5.09452        -0.456029     -0.794183      0.169760
      5.39653      5.04783      7.50730        -0.709527      0.269742      0.006960
      8.15083      3.43148      4.65352         0.085738      0.371566      0.002174
      0.90395      9.20184      9.35656        -0.312471     -0.133797      0.270755
      7.69450      0.30223      3.58651        -0.594431     -0.415315     -0.334960
      0.76022      7.70442      0.32377         0.171225     -0.088172      0.018560
 -----------------------------------------------------------------------------------
    total drift:                               -0.000961      0.003105      0.008933


--------------------------------------------------------------------------------------------------------



  FREE ENERGIE OF THE ION-ELECTRON SYSTEM (eV)
  ---------------------------------------------------
  free  energy   TOTEN  =      -256.33511583 eV

  energy  without entropy=     -256.33511583  energy(sigma->0) =     -256.33511583
 


--------------------------------------------------------------------------------------------------------


    POTLOK:  cpu time    0.0958: real time    0.0957


--------------------------------------------------------------------------------------------------------




--------------------------------------------------------------------------------------------------------


     LOOP+:  cpu time   59.2739: real time   59.3070
    4ORBIT:  cpu time    0.0000: real time    0.0000
 


 total charge     
 
# of ion       s       p       d       tot
------------------------------------------
    1        2.031   0.069   0.000   2.100
    2        2.022   0.060   0.000   2.082
    3        2.014   0.047   0.000   2.061
    4        2.015   0.043   0.000   2.058
    5        2.007   0.032   0.000   2.039
    6        2.015   0.046   0.000   2.061
    7        2.016   0.049   0.000   2.064
    8        2.028   0.067   0.000   2.094
    9        2.016   0.047   0.000   2.063
   10        2.017   0.051   0.000   2.068
   11        2.014   0.041   0.000   2.055
   12        2.011   0.040   0.000   2.050
   13        2.027   0.066   0.000   2.093
   14        2.023   0.058   0.000   2.082
   15        2.020   0.053   0.000   2.072
   16        2.027   0.063   0.000   2.090
   17        2.018   0.052   0.000   2.070
   18        2.027   0.069   0.000   2.096
   19        2.021   0.058   0.000   2.079
   20        2.014   0.047   0.000   2.061
   21        2.017   0.049   0.000   2.066
   22        2.010   0.038   0.000   2.048
   23        2.015   0.045   0.000   2.060
   24        2.031   0.076   0.000   2.106
   25        2.023   0.059   0.000   2.083
   26        2.014   0.044   0.000   2.058
   27        2.016   0.047   0.000   2.063
   28        2.018   0.049   0.000   2.066
   29        2.014   0.045   0.000   2.059
   30        2.020   0.050   0.000   2.069
   31        1.061   1.360   0.000   2.421
   32        1.099   1.322   0.000   2.421
   33        1.092   1.316   0.000   2.408
   34        1.067   1.395   0.000   2.462
   35        1.071   1.332   0.000   2.403
   36        1.362   2.250   0.000   3.612
   37        1.355   2.317   0.000   3.671
   38        1.374   2.224   0.000   3.598
   39        1.332   2.458   0.000   3.790
   40        1.338   2.425   0.000   3.762
   41        1.327   2.387   0.000   3.714
   42        1.336   2.411   0.000   3.747
   43        1.333   2.441   0.000   3.774
   44        1.361   2.301   0.000   3.662
   45        1.335   2.423   0.000   3.758
   46        1.312   2.473   0.000   3.785
   47        1.324   2.432   0.000   3.756
   48        1.342   2.403   0.000   3.744
   49        1.333   2.416   0.000   3.749
   50        1.349   2.348   0.000   3.697
   51        1.307   2.496   0.000   3.802
   52        1.323   2.399   0.000   3.722
   53        1.307   2.484   0.000   3.791
   54        1.307   2.521   0.000   3.828
   55        1.333   2.460   0.000   3.794
   56        1.337   2.422   0.000   3.759
   57        1.352   2.346   0.000   3.698
   58        1.349   2.314   0.000   3.663
   59        1.358   2.284   0.000   3.642
   60        1.329   2.478   0.000   3.806
   61        1.589   3.617   0.000   5.206
   62        1.591   3.577   0.000   5.168
   63        1.590   3.591   0.000   5.181
   64        1.592   3.573   0.000   5.164
   65        1.590   3.597   0.000   5.186
--------------------------------------------------
tot        107.313  86.148   0.000 193.461
 

 total amount of memory used by VASP MPI-rank0    42204. kBytes
=======================================================================

   base      :      30000. kBytes
   nonl-proj :       5360. kBytes
   fftplans  :       1886. kBytes
   grid      :       3386. kBytes
   one-center:         27. kBytes
   wavefun   :       1545. kBytes
 
  
  
 General timing and accounting informations for this job:
 ========================================================
  
                  Total CPU time used (sec):       67.734
                            User time (sec):       63.314
                          System time (sec):        4.419
                         Elapsed time (sec):       68.915
  
                   Maximum memory used (kb):      159624.
                   Average memory used (kb):           0.
  
                          Minor page faults:        55123
                          Major page faults:            0
                 Voluntary context switches:         2970
