<?xml version="1.0" encoding="ISO-8859-1"?>
<modeling>
 <generator>
  <i name="program" type="string">vasp </i>
  <i name="version" type="string">5.4.4.18Apr17-6-g9f103f2a35  </i>
  <i name="subversion" type="string">(build Jan 22 2020 12:49:05) complex            parallel </i>
  <i name="platform" type="string">Bebop BDW IPS19.0.5 gcc9.2.0 </i>
  <i name="date" type="string">2022 09 29 </i>
  <i name="time" type="string">10:01:30 </i>
 </generator>
 <incar>
  <i type="string" name="SYSTEM"> LPSC</i>
  <i type="string" name="PREC">normal</i>
  <i type="int" name="IALGO">    48</i>
  <i type="int" name="ISPIN">     1</i>
  <i type="int" name="NELM">   100</i>
  <i type="int" name="IBRION">     2</i>
  <i name="EDIFF">      0.00000100</i>
  <i name="EDIFFG">     -0.01000000</i>
  <i type="int" name="NSW">     1</i>
  <i type="int" name="ISIF">     2</i>
  <i type="int" name="ISYM">     0</i>
  <i name="ENCUT">    500.00000000</i>
  <i type="int" name="ISMEAR">     0</i>
  <i name="SIGMA">      0.05000000</i>
  <i type="logical" name="LWAVE"> F  </i>
  <i type="logical" name="LCHARG"> F  </i>
  <i type="int" name="LORBIT">    11</i>
  <v type="int" name="KPOINT_BSE">    -1     0     0     0</v>
  <i type="int" name="NELM">   100</i>
 </incar>
 <structure name="primitive_cell" >
  <crystal>
   <varray name="basis" >
    <v>      10.25000000       0.00000000       0.00000000 </v>
    <v>       0.00000000      10.25000000       0.00000000 </v>
    <v>       0.00000000       0.00000000      12.35000000 </v>
   </varray>
   <i name="volume">   1297.52187500 </i>
   <varray name="rec_basis" >
    <v>       0.09756098       0.00000000       0.00000000 </v>
    <v>       0.00000000       0.09756098       0.00000000 </v>
    <v>       0.00000000       0.00000000       0.08097166 </v>
   </varray>
  </crystal>
  <varray name="positions" >
   <v>      -0.36529171      -0.10580780       0.01178356 </v>
   <v>      -0.30640683      -0.27717951       0.08776680 </v>
   <v>      -0.21483122       0.05287161      -0.04097976 </v>
   <v>       0.41353171       0.00680913       0.07839879 </v>
   <v>      -0.10336780      -0.12672585       0.02724923 </v>
   <v>      -0.37467512      -0.16414537       0.24549798 </v>
   <v>       0.43828683      -0.08392293      -0.17133603 </v>
   <v>       0.48355902      -0.34480683       0.15686721 </v>
   <v>      -0.29447024       0.04853990      -0.23085263 </v>
   <v>      -0.40054732       0.23824780      -0.01313360 </v>
   <v>      -0.38352683      -0.45982927      -0.00856680 </v>
   <v>       0.38250537      -0.10989659       0.22274656 </v>
   <v>       0.39266244      -0.37927902      -0.04870445 </v>
   <v>       0.44943610       0.18091512       0.14375223 </v>
   <v>      -0.24931707       0.02948546       0.29040567 </v>
   <v>      -0.45530829      -0.36447805      -0.22444777 </v>
   <v>      -0.44269171      -0.14793756      -0.30882429 </v>
   <v>      -0.10500000      -0.40694537       0.01521190 </v>
   <v>      -0.48839317       0.07862654       0.30369798 </v>
   <v>      -0.16308976       0.19312098      -0.17025101 </v>
   <v>      -0.09365073       0.21649463       0.03831401 </v>
   <v>      -0.46345561       0.22795512      -0.18948178 </v>
   <v>       0.36737171       0.10808098      -0.19670769 </v>
   <v>      -0.26077854      -0.43754732       0.21581296 </v>
   <v>      -0.22968976      -0.44264195      -0.18419433 </v>
   <v>      -0.31241268       0.24750146       0.22043968 </v>
   <v>       0.07416761      -0.24834927       0.02621619 </v>
   <v>       0.20859122      -0.26178537      -0.13574899 </v>
   <v>      -0.49659122      -0.38453073       0.33490769 </v>
   <v>      -0.22841659       0.36925756       0.07567619 </v>
   <v>       0.21762537       0.17020000       0.02394397 </v>
   <v>      -0.02654732      -0.30379902      -0.27300081 </v>
   <v>      -0.04900683      -0.35180976       0.29156518 </v>
   <v>       0.08819024      -0.10225951      -0.24238381 </v>
   <v>       0.16176195      -0.29574634       0.19997085 </v>
   <v>       0.28086732       0.47684293      -0.11395951 </v>
   <v>      -0.16068878       0.11974634      -0.39382591 </v>
   <v>       0.07505102       0.24458439      -0.10068016 </v>
   <v>      -0.28807707       0.12774927       0.44943482 </v>
   <v>      -0.27387805      -0.42527415      -0.38843644 </v>
   <v>       0.08039015       0.21581073       0.18464858 </v>
   <v>       0.29687220      -0.39303317       0.33952713 </v>
   <v>       0.29166732       0.19663024       0.32938381 </v>
   <v>      -0.40068390       0.27985268      -0.38609636 </v>
   <v>      -0.19985951       0.39878829      -0.26611417 </v>
   <v>      -0.01356098      -0.07374829      -0.41268259 </v>
   <v>       0.20628000       0.05174800      -0.33863320 </v>
   <v>       0.43789268      -0.02823317      -0.47356842 </v>
   <v>      -0.15271220      -0.26287707      -0.45663563 </v>
   <v>      -0.07008000       0.38884488       0.22966964 </v>
   <v>       0.47795220       0.18495415       0.46414737 </v>
   <v>      -0.47350927       0.49247122      -0.39212146 </v>
   <v>      -0.20479707       0.33477854       0.37680324 </v>
   <v>       0.18323902      -0.44090146      -0.25617328 </v>
   <v>       0.09521610       0.43136000      -0.01557895 </v>
   <v>       0.00540259       0.35982341      -0.26321296 </v>
   <v>       0.18545366       0.38339805       0.13748988 </v>
   <v>      -0.02116098      -0.37762049       0.45629150 </v>
   <v>       0.30030439      -0.48015220      -0.40217490 </v>
   <v>       0.02660546       0.19144098      -0.41085668 </v>
   <v>       0.19966146      -0.09397561       0.48649474 </v>
   <v>       0.44507024       0.40542634       0.43549069 </v>
   <v>       0.19719707      -0.28448195       0.48619190 </v>
   <v>       0.23982439       0.43454439       0.41251174 </v>
   <v>       0.02550439       0.36683707       0.44929069 </v>
  </varray>
 </structure>
 <varray name="primitive_index" >
  <v type="int" >        1 </v>
  <v type="int" >       54 </v>
  <v type="int" >       51 </v>
  <v type="int" >       59 </v>
  <v type="int" >       30 </v>
  <v type="int" >       27 </v>
  <v type="int" >       38 </v>
  <v type="int" >       19 </v>
  <v type="int" >       28 </v>
  <v type="int" >       15 </v>
  <v type="int" >       17 </v>
  <v type="int" >       37 </v>
  <v type="int" >       43 </v>
  <v type="int" >       56 </v>
  <v type="int" >       64 </v>
  <v type="int" >       26 </v>
  <v type="int" >       58 </v>
  <v type="int" >       12 </v>
  <v type="int" >        8 </v>
  <v type="int" >       16 </v>
  <v type="int" >       24 </v>
  <v type="int" >       57 </v>
  <v type="int" >       36 </v>
  <v type="int" >        7 </v>
  <v type="int" >       47 </v>
  <v type="int" >       21 </v>
  <v type="int" >       65 </v>
  <v type="int" >       20 </v>
  <v type="int" >       42 </v>
  <v type="int" >       46 </v>
  <v type="int" >        3 </v>
  <v type="int" >       22 </v>
  <v type="int" >       49 </v>
  <v type="int" >       63 </v>
  <v type="int" >        4 </v>
  <v type="int" >       32 </v>
  <v type="int" >       52 </v>
  <v type="int" >       48 </v>
  <v type="int" >       25 </v>
  <v type="int" >        2 </v>
  <v type="int" >       50 </v>
  <v type="int" >       31 </v>
  <v type="int" >        5 </v>
  <v type="int" >       29 </v>
  <v type="int" >       55 </v>
  <v type="int" >        9 </v>
  <v type="int" >        6 </v>
  <v type="int" >       11 </v>
  <v type="int" >       40 </v>
  <v type="int" >       10 </v>
  <v type="int" >       53 </v>
  <v type="int" >       61 </v>
  <v type="int" >       62 </v>
  <v type="int" >       45 </v>
  <v type="int" >       33 </v>
  <v type="int" >       13 </v>
  <v type="int" >       44 </v>
  <v type="int" >       35 </v>
  <v type="int" >       14 </v>
  <v type="int" >       41 </v>
  <v type="int" >       39 </v>
  <v type="int" >       18 </v>
  <v type="int" >       34 </v>
  <v type="int" >       60 </v>
  <v type="int" >       23 </v>
 </varray>
 <kpoints>
  <generation param="Gamma">
   <v type="int" name="divisions">       1        1        1 </v>
   <v name="usershift">      0.00000000       0.00000000       0.00000000 </v>
   <v name="genvec1">      1.00000000       0.00000000       0.00000000 </v>
   <v name="genvec2">      0.00000000       1.00000000       0.00000000 </v>
   <v name="genvec3">      0.00000000       0.00000000       1.00000000 </v>
   <v name="shift">      0.00000000       0.00000000       0.00000000 </v>
  </generation>
  <varray name="kpointlist" >
   <v>       0.00000000       0.00000000       0.00000000 </v>
  </varray>
  <varray name="weights" >
   <v>       1.00000000 </v>
  </varray>
 </kpoints>
 <parameters>
  <separator name="general" >
   <i type="string" name="SYSTEM">LPSC</i>
   <i type="logical" name="LCOMPAT"> F  </i>
  </separator>
  <separator name="electronic" >
   <i type="string" name="PREC">normal</i>
   <i name="ENMAX">    500.00000000</i>
   <i name="ENAUG">    628.94500000</i>
   <i name="EDIFF">      0.00000100</i>
   <i type="int" name="IALGO">    48</i>
   <i type="int" name="IWAVPR">    11</i>
   <i type="int" name="NBANDS">   184</i>
   <i name="NELECT">    300.00000000</i>
   <i type="int" name="TURBO">     0</i>
   <i type="int" name="IRESTART">     0</i>
   <i type="int" name="NREBOOT">     0</i>
   <i type="int" name="NMIN">     0</i>
   <i name="EREF">      0.00000000</i>
   <separator name="electronic smearing" >
    <i type="int" name="ISMEAR">     0</i>
    <i name="SIGMA">      0.05000000</i>
    <i name="KSPACING">      0.50000000</i>
    <i type="logical" name="KGAMMA"> T  </i>
   </separator>
   <separator name="electronic projectors" >
    <i type="logical" name="LREAL"> F  </i>
    <v name="ROPT">      0.00000000      0.00000000      0.00000000      0.00000000</v>
    <i type="int" name="LMAXPAW">  -100</i>
    <i type="int" name="LMAXMIX">     2</i>
    <i type="logical" name="NLSPLINE"> F  </i>
   </separator>
   <separator name="electronic startup" >
    <i type="int" name="ISTART">     0</i>
    <i type="int" name="ICHARG">     2</i>
    <i type="int" name="INIWAV">     1</i>
   </separator>
   <separator name="electronic spin" >
    <i type="int" name="ISPIN">     1</i>
    <i type="logical" name="LNONCOLLINEAR"> F  </i>
    <v name="MAGMOM">      1.00000000      1.00000000      1.00000000      1.00000000      1.00000000      1.00000000      1.00000000      1.00000000      1.00000000      1.00000000      1.00000000      1.00000000      1.00000000      1.00000000      1.00000000      1.00000000      1.00000000      1.00000000      1.00000000      1.00000000
      1.00000000      1.00000000      1.00000000      1.00000000      1.00000000      1.00000000      1.00000000      1.00000000      1.00000000      1.00000000      1.00000000      1.00000000      1.00000000      1.00000000      1.00000000      1.00000000      1.00000000      1.00000000      1.00000000      1.00000000
      1.00000000      1.00000000      1.00000000      1.00000000      1.00000000      1.00000000      1.00000000      1.00000000      1.00000000      1.00000000      1.00000000      1.00000000      1.00000000      1.00000000      1.00000000      1.00000000      1.00000000      1.00000000      1.00000000      1.00000000
      1.00000000      1.00000000      1.00000000      1.00000000      1.00000000</v>
    <i name="NUPDOWN">     -1.00000000</i>
    <i type="logical" name="LSORBIT"> F  </i>
    <v name="SAXIS">      0.00000000      0.00000000      1.00000000</v>
    <i type="logical" name="LSPIRAL"> F  </i>
    <v name="QSPIRAL">      0.00000000      0.00000000      0.00000000</v>
    <i type="logical" name="LZEROZ"> F  </i>
   </separator>
   <separator name="electronic exchange-correlation" >
    <i type="logical" name="LASPH"> F  </i>
    <i type="logical" name="LMETAGGA"> F  </i>
   </separator>
   <separator name="electronic convergence" >
    <i type="int" name="NELM">   100</i>
    <i type="int" name="NELMDL">   -12</i>
    <i type="int" name="NELMIN">     2</i>
    <i name="ENINI">    500.00000000</i>
    <separator name="electronic convergence detail" >
     <i type="logical" name="LDIAG"> T  </i>
     <i type="logical" name="LSUBROT"> F  </i>
     <i name="WEIMIN">      0.00100000</i>
     <i name="EBREAK">      0.00000000</i>
     <i name="DEPER">      0.30000000</i>
     <i type="int" name="NRMM">     4</i>
     <i name="TIME">      0.40000000</i>
    </separator>
   </separator>
   <separator name="electronic mixer" >
    <i name="AMIX">      0.40000000</i>
    <i name="BMIX">      1.00000000</i>
    <i name="AMIN">      0.10000000</i>
    <i name="AMIX_MAG">      1.60000000</i>
    <i name="BMIX_MAG">      1.00000000</i>
    <separator name="electronic mixer details" >
     <i type="int" name="IMIX">     4</i>
     <i type="logical" name="MIXFIRST"> F  </i>
     <i type="int" name="MAXMIX">   -45</i>
     <i name="WC">    100.00000000</i>
     <i type="int" name="INIMIX">     1</i>
     <i type="int" name="MIXPRE">     1</i>
     <i type="int" name="MREMOVE">     5</i>
    </separator>
   </separator>
   <separator name="electronic dipolcorrection" >
    <i type="logical" name="LDIPOL"> F  </i>
    <i type="logical" name="LMONO"> F  </i>
    <i type="int" name="IDIPOL">     0</i>
    <i name="EPSILON">      1.00000000</i>
    <v name="DIPOL">   -100.00000000   -100.00000000   -100.00000000</v>
    <i name="EFIELD">      0.00000000</i>
   </separator>
  </separator>
  <separator name="grids" >
   <i type="int" name="NGX">    56</i>
   <i type="int" name="NGY">    56</i>
   <i type="int" name="NGZ">    70</i>
   <i type="int" name="NGXF">   112</i>
   <i type="int" name="NGYF">   112</i>
   <i type="int" name="NGZF">   140</i>
   <i type="logical" name="ADDGRID"> F  </i>
  </separator>
  <separator name="ionic" >
   <i type="int" name="NSW">     1</i>
   <i type="int" name="IBRION">     2</i>
   <i type="int" name="MDALGO">     0</i>
   <i type="int" name="ISIF">     2</i>
   <i name="PSTRESS">      0.00000000</i>
   <i name="EDIFFG">     -0.01000000</i>
   <i type="int" name="NFREE">     1</i>
   <i name="POTIM">      0.50000000</i>
   <i name="SMASS">     -3.00000000</i>
   <i name="SCALEE">      1.00000000</i>
  </separator>
  <separator name="ionic md" >
   <i name="TEBEG">      0.00010000</i>
   <i name="TEEND">      0.00010000</i>
   <i type="int" name="NBLOCK">     1</i>
   <i type="int" name="KBLOCK">     1</i>
   <i type="int" name="NPACO">   256</i>
   <i name="APACO">     16.00000000</i>
  </separator>
  <separator name="symmetry" >
   <i type="int" name="ISYM">     0</i>
   <i name="SYMPREC">      0.00001000</i>
  </separator>
  <separator name="dos" >
   <i type="int" name="LORBIT">    11</i>
   <v name="RWIGS">     -1.00000000     -1.00000000     -1.00000000     -1.00000000</v>
   <i type="int" name="NEDOS">   301</i>
   <i name="EMIN">     10.00000000</i>
   <i name="EMAX">    -10.00000000</i>
   <i name="EFERMI">      0.00000000</i>
  </separator>
  <separator name="writing" >
   <i type="int" name="NWRITE">     2</i>
   <i type="logical" name="LWAVE"> F  </i>
   <i type="logical" name="LDOWNSAMPLE"> F  </i>
   <i type="logical" name="LCHARG"> F  </i>
   <i type="logical" name="LPARD"> F  </i>
   <i type="logical" name="LVTOT"> F  </i>
   <i type="logical" name="LVHAR"> F  </i>
   <i type="logical" name="LELF"> F  </i>
   <i type="logical" name="LOPTICS"> F  </i>
   <v name="STM">      0.00000000      0.00000000      0.00000000      0.00000000      0.00000000      0.00000000      0.00000000</v>
  </separator>
  <separator name="performance" >
   <i type="int" name="NPAR">     8</i>
   <i type="int" name="NSIM">     4</i>
   <i type="int" name="NBLK">    -1</i>
   <i type="logical" name="LPLANE"> T  </i>
   <i type="logical" name="LSCALAPACK"> T  </i>
   <i type="logical" name="LSCAAWARE"> F  </i>
   <i type="logical" name="LSCALU"> F  </i>
   <i type="logical" name="LASYNC"> F  </i>
   <i type="logical" name="LORBITALREAL"> F  </i>
  </separator>
  <separator name="miscellaneous" >
   <i type="int" name="IDIOT">     3</i>
   <i type="int" name="ISPECIAL">     0</i>
   <i type="logical" name="LMUSIC"> F  </i>
   <v name="POMASS">      7.01000000     30.97400000     32.06600000     35.45300000</v>
   <v name="DARWINR">      0.00000000      0.00000000      0.00000000      0.00000000</v>
   <v name="DARWINV">      1.00000000      1.00000000      1.00000000      1.00000000</v>
   <i type="logical" name="LCORR"> T  </i>
  </separator>
  <i type="logical" name="GGA_COMPAT"> T  </i>
  <i type="logical" name="LBERRY"> F  </i>
  <i type="int" name="ICORELEVEL">     0</i>
  <i type="logical" name="LDAU"> F  </i>
  <i type="int" name="I_CONSTRAINED_M">     0</i>
  <separator name="electronic exchange-correlation" >
   <i type="string" name="GGA">--</i>
   <i type="int" name="VOSKOWN">     0</i>
   <i type="logical" name="LHFCALC"> F  </i>
   <i type="string" name="PRECFOCK"></i>
   <i type="logical" name="LSYMGRAD"> F  </i>
   <i type="logical" name="LHFONE"> F  </i>
   <i type="logical" name="LRHFCALC"> F  </i>
   <i type="logical" name="LTHOMAS"> F  </i>
   <i type="logical" name="LMODELHF"> F  </i>
   <i name="ENCUT4O">     -1.00000000</i>
   <i type="int" name="EXXOEP">     0</i>
   <i type="int" name="FOURORBIT">     0</i>
   <i name="AEXX">      0.00000000</i>
   <i name="HFALPHA">      0.00000000</i>
   <i name="MCALPHA">      0.00000000</i>
   <i name="ALDAX">      1.00000000</i>
   <i name="AGGAX">      1.00000000</i>
   <i name="ALDAC">      1.00000000</i>
   <i name="AGGAC">      1.00000000</i>
   <i type="int" name="NKREDX">     1</i>
   <i type="int" name="NKREDY">     1</i>
   <i type="int" name="NKREDZ">     1</i>
   <i type="logical" name="SHIFTRED"> F  </i>
   <i type="logical" name="ODDONLY"> F  </i>
   <i type="logical" name="EVENONLY"> F  </i>
   <i type="int" name="LMAXFOCK">     0</i>
   <i type="int" name="NMAXFOCKAE">     0</i>
   <i type="logical" name="LFOCKAEDFT"> F  </i>
   <i name="HFSCREEN">      0.00000000</i>
   <i name="HFSCREENC">      0.00000000</i>
   <i type="int" name="NBANDSGWLOW">     0</i>
  </separator>
  <separator name="vdW DFT" >
   <i type="logical" name="LUSE_VDW"> F  </i>
   <i name="Zab_VDW">     -0.84910000</i>
   <i name="PARAM1">      0.12340000</i>
   <i name="PARAM2">      1.00000000</i>
   <i name="PARAM3">      0.00000000</i>
  </separator>
  <separator name="model GW" >
   <i type="int" name="MODEL_GW">     0</i>
   <i name="MODEL_EPS0">     11.97712500</i>
   <i name="MODEL_ALPHA">      1.00000000</i>
  </separator>
  <separator name="linear response parameters" >
   <i type="logical" name="LEPSILON"> F  </i>
   <i type="logical" name="LRPA"> F  </i>
   <i type="logical" name="LNABLA"> F  </i>
   <i type="logical" name="LVEL"> F  </i>
   <i type="int" name="KINTER">     0</i>
   <i name="CSHIFT">      0.10000000</i>
   <i name="OMEGAMAX">     -1.00000000</i>
   <i name="DEG_THRESHOLD">      0.00200000</i>
   <i name="RTIME">     -0.10000000</i>
   <i name="WPLASMAI">      0.00000000</i>
   <v name="DFIELD">      0.00000000      0.00000000      0.00000000</v>
   <v name="WPLASMA">      0.00000000      0.00000000      0.00000000      0.00000000      0.00000000      0.00000000      0.00000000      0.00000000      0.00000000</v>
  </separator>
  <separator name="orbital magnetization" >
   <i type="logical" name="NUCIND"> F  </i>
   <v name="MAGPOS">      0.00000000      0.00000000      0.00000000</v>
   <i type="logical" name="LNICSALL"> T  </i>
   <i type="logical" name="ORBITALMAG"> F  </i>
   <i type="logical" name="LMAGBLOCH"> F  </i>
   <i type="logical" name="LCHIMAG"> F  </i>
   <i type="logical" name="LGAUGE"> T  </i>
   <i type="int" name="MAGATOM">     0</i>
   <v name="MAGDIPOL">      0.00000000      0.00000000      0.00000000</v>
   <v name="AVECCONST">      0.00000000      0.00000000      0.00000000</v>
  </separator>
  <separator name="response functions" >
   <i type="logical" name="LADDER"> F  </i>
   <i type="logical" name="LRPAFORCE"> F  </i>
   <i type="logical" name="LFXC"> F  </i>
   <i type="logical" name="LHARTREE"> T  </i>
   <i type="int" name="IBSE">     0</i>
   <v type="int" name="KPOINT">    -1     0     0     0</v>
   <i type="logical" name="LTCTE"> F  </i>
   <i type="logical" name="LTETE"> F  </i>
   <i type="logical" name="LTRIPLET"> F  </i>
   <i type="logical" name="LFXCEPS"> F  </i>
   <i type="logical" name="LFXHEG"> F  </i>
   <i type="int" name="NATURALO">     2</i>
   <i type="logical" name="L2ORDER"> F  </i>
   <i type="logical" name="LMP2LT"> F  </i>
   <i type="logical" name="LUSEW"> F  </i>
   <i name="ENCUTGW">     -2.00000000</i>
   <i name="ENCUTGWSOFT">     -2.00000000</i>
   <i name="ENCUTLF">     -1.00000000</i>
   <i type="int" name="LMAXMP2">    -1</i>
   <i name="SCISSOR">      0.00000000</i>
   <i type="int" name="NOMEGA">     0</i>
   <i type="int" name="NOMEGAR">     0</i>
   <i type="int" name="NBANDSGW">    -1</i>
   <i type="int" name="NBANDSO">    -1</i>
   <i type="int" name="NBANDSV">    -1</i>
   <i type="int" name="NELM">   100</i>
   <i type="int" name="NELMHF">     1</i>
   <i type="int" name="DIM">     3</i>
   <i type="int" name="ANTIRES">     0</i>
   <i name="OMEGAMAX">    -30.00000000</i>
   <i name="OMEGAMIN">    -30.00000000</i>
   <i name="OMEGATL">   -200.00000000</i>
   <i type="int" name="OMEGAGRID">   140</i>
   <i name="CSHIFT">     -0.10000000</i>
   <i type="logical" name="SELFENERGY"> F  </i>
   <i type="logical" name="LSPECTRAL"> F  </i>
   <i type="logical" name="LSPECTRALGW"> F  </i>
   <i type="logical" name="LSINGLES"> F  </i>
   <i type="logical" name="LFERMIGW"> F  </i>
   <i type="logical" name="ODDONLYGW"> F  </i>
   <i type="logical" name="EVENONLYGW"> F  </i>
   <i type="int" name="NKREDLFX">     1</i>
   <i type="int" name="NKREDLFY">     1</i>
   <i type="int" name="NKREDLFZ">     1</i>
   <i type="int" name="MAXMEM">  2800</i>
   <i type="int" name="TELESCOPE">     0</i>
   <i type="int" name="TAUPAR">     1</i>
   <i type="int" name="OMEGAPAR">    -1</i>
   <i name="LAMBDA">      1.00000000</i>
  </separator>
  <separator name="External order field" >
   <i name="OFIELD_KAPPA">      0.00000000</i>
   <v name="OFIELD_K">      0.00000000      0.00000000      0.00000000</v>
   <i name="OFIELD_Q6_NEAR">      0.00000000</i>
   <i name="OFIELD_Q6_FAR">      0.00000000</i>
   <i name="OFIELD_A">      0.00000000</i>
  </separator>
 </parameters>
 <atominfo>
  <atoms>      65 </atoms>
  <types>       4 </types>
  <array name="atoms" >
   <dimension dim="1">ion</dimension>
   <field type="string">element</field>
   <field type="int">atomtype</field>
   <set>
    <rc><c>Li</c><c>   1</c></rc>
    <rc><c>Li</c><c>   1</c></rc>
    <rc><c>Li</c><c>   1</c></rc>
    <rc><c>Li</c><c>   1</c></rc>
    <rc><c>Li</c><c>   1</c></rc>
    <rc><c>Li</c><c>   1</c></rc>
    <rc><c>Li</c><c>   1</c></rc>
    <rc><c>Li</c><c>   1</c></rc>
    <rc><c>Li</c><c>   1</c></rc>
    <rc><c>Li</c><c>   1</c></rc>
    <rc><c>Li</c><c>   1</c></rc>
    <rc><c>Li</c><c>   1</c></rc>
    <rc><c>Li</c><c>   1</c></rc>
    <rc><c>Li</c><c>   1</c></rc>
    <rc><c>Li</c><c>   1</c></rc>
    <rc><c>Li</c><c>   1</c></rc>
    <rc><c>Li</c><c>   1</c></rc>
    <rc><c>Li</c><c>   1</c></rc>
    <rc><c>Li</c><c>   1</c></rc>
    <rc><c>Li</c><c>   1</c></rc>
    <rc><c>Li</c><c>   1</c></rc>
    <rc><c>Li</c><c>   1</c></rc>
    <rc><c>Li</c><c>   1</c></rc>
    <rc><c>Li</c><c>   1</c></rc>
    <rc><c>Li</c><c>   1</c></rc>
    <rc><c>Li</c><c>   1</c></rc>
    <rc><c>Li</c><c>   1</c></rc>
    <rc><c>Li</c><c>   1</c></rc>
    <rc><c>Li</c><c>   1</c></rc>
    <rc><c>Li</c><c>   1</c></rc>
    <rc><c>P </c><c>   2</c></rc>
    <rc><c>P </c><c>   2</c></rc>
    <rc><c>P </c><c>   2</c></rc>
    <rc><c>P </c><c>   2</c></rc>
    <rc><c>P </c><c>   2</c></rc>
    <rc><c>S </c><c>   3</c></rc>
    <rc><c>S </c><c>   3</c></rc>
    <rc><c>S </c><c>   3</c></rc>
    <rc><c>S </c><c>   3</c></rc>
    <rc><c>S </c><c>   3</c></rc>
    <rc><c>S </c><c>   3</c></rc>
    <rc><c>S </c><c>   3</c></rc>
    <rc><c>S </c><c>   3</c></rc>
    <rc><c>S </c><c>   3</c></rc>
    <rc><c>S </c><c>   3</c></rc>
    <rc><c>S </c><c>   3</c></rc>
    <rc><c>S </c><c>   3</c></rc>
    <rc><c>S </c><c>   3</c></rc>
    <rc><c>S </c><c>   3</c></rc>
    <rc><c>S </c><c>   3</c></rc>
    <rc><c>S </c><c>   3</c></rc>
    <rc><c>S </c><c>   3</c></rc>
    <rc><c>S </c><c>   3</c></rc>
    <rc><c>S </c><c>   3</c></rc>
    <rc><c>S </c><c>   3</c></rc>
    <rc><c>S </c><c>   3</c></rc>
    <rc><c>S </c><c>   3</c></rc>
    <rc><c>S </c><c>   3</c></rc>
    <rc><c>S </c><c>   3</c></rc>
    <rc><c>S </c><c>   3</c></rc>
    <rc><c>Cl</c><c>   4</c></rc>
    <rc><c>Cl</c><c>   4</c></rc>
    <rc><c>Cl</c><c>   4</c></rc>
    <rc><c>Cl</c><c>   4</c></rc>
    <rc><c>Cl</c><c>   4</c></rc>
   </set>
  </array>
  <array name="atomtypes" >
   <dimension dim="1">type</dimension>
   <field type="int">atomspertype</field>
   <field type="string">element</field>
   <field>mass</field>
   <field>valence</field>
   <field type="string">pseudopotential</field>
   <set>
    <rc><c>  30</c><c>Li</c><c>      7.01000000</c><c>      3.00000000</c><c>  PAW_PBE Li_sv 10Sep2004               </c></rc>
    <rc><c>   5</c><c>P </c><c>     30.97400000</c><c>      5.00000000</c><c>  PAW_PBE P 06Sep2000                   </c></rc>
    <rc><c>  25</c><c>S </c><c>     32.06600000</c><c>      6.00000000</c><c>  PAW_PBE S 06Sep2000                   </c></rc>
    <rc><c>   5</c><c>Cl</c><c>     35.45300000</c><c>      7.00000000</c><c>  PAW_PBE Cl 06Sep2000                  </c></rc>
   </set>
  </array>
 </atominfo>
 <structure name="initialpos" >
  <crystal>
   <varray name="basis" >
    <v>      10.25000000       0.00000000       0.00000000 </v>
    <v>       0.00000000      10.25000000       0.00000000 </v>
    <v>       0.00000000       0.00000000      12.35000000 </v>
   </varray>
   <i name="volume">   1297.52187500 </i>
   <varray name="rec_basis" >
    <v>       0.09756098       0.00000000       0.00000000 </v>
    <v>       0.00000000       0.09756098       0.00000000 </v>
    <v>       0.00000000       0.00000000       0.08097166 </v>
   </varray>
  </crystal>
  <varray name="positions" >
   <v>       0.63470829       0.89419220       0.01178356 </v>
   <v>       0.72612195       0.57472585       0.61156356 </v>
   <v>       0.21762537       0.17020000       0.02394397 </v>
   <v>       0.16176195       0.70425366       0.19997085 </v>
   <v>       0.29166732       0.19663024       0.32938381 </v>
   <v>       0.20628000       0.05174800       0.66136680 </v>
   <v>       0.73922146       0.56245268       0.21581296 </v>
   <v>       0.51160683       0.07862654       0.30369798 </v>
   <v>       0.98643902       0.92625171       0.58731741 </v>
   <v>       0.92992000       0.38884488       0.22966964 </v>
   <v>       0.43789268       0.97176683       0.52643158 </v>
   <v>       0.89500000       0.59305463       0.01521190 </v>
   <v>       0.00540259       0.35982341       0.73678704 </v>
   <v>       0.30030439       0.51984780       0.59782510 </v>
   <v>       0.59945268       0.23824780       0.98686640 </v>
   <v>       0.83691024       0.19312098       0.82974899 </v>
   <v>       0.61647317       0.54017073       0.99143320 </v>
   <v>       0.44507024       0.40542634       0.43549069 </v>
   <v>       0.48355902       0.65519317       0.15686721 </v>
   <v>       0.20859122       0.73821463       0.86425101 </v>
   <v>       0.68758732       0.24750146       0.22043968 </v>
   <v>       0.97345268       0.69620098       0.72699919 </v>
   <v>       0.02550439       0.36683707       0.44929069 </v>
   <v>       0.90634927       0.21649463       0.03831401 </v>
   <v>       0.71192293       0.12774927       0.44943482 </v>
   <v>       0.54469171       0.63552195       0.77555223 </v>
   <v>       0.62532488       0.83585463       0.24549798 </v>
   <v>       0.70552976       0.04853990       0.76914737 </v>
   <v>       0.59931610       0.27985268       0.61390364 </v>
   <v>       0.89663220       0.87327415       0.02724923 </v>
   <v>       0.29687220       0.60696683       0.33952713 </v>
   <v>       0.28086732       0.47684293       0.88604049 </v>
   <v>       0.09521610       0.43136000       0.98442105 </v>
   <v>       0.19719707       0.71551805       0.48619190 </v>
   <v>       0.97883902       0.62237951       0.45629150 </v>
   <v>       0.36737171       0.10808098       0.80329231 </v>
   <v>       0.38250537       0.89010341       0.22274656 </v>
   <v>       0.43828683       0.91607707       0.82866397 </v>
   <v>       0.19966146       0.90602439       0.48649474 </v>
   <v>       0.84728780       0.73712293       0.54336437 </v>
   <v>       0.02660546       0.19144098       0.58914332 </v>
   <v>       0.50340878       0.61546927       0.33490769 </v>
   <v>       0.39266244       0.62072098       0.95129555 </v>
   <v>       0.18545366       0.38339805       0.13748988 </v>
   <v>       0.18323902       0.55909854       0.74382672 </v>
   <v>       0.77158341       0.36925756       0.07567619 </v>
   <v>       0.77031024       0.55735805       0.81580567 </v>
   <v>       0.07505102       0.24458439       0.89931984 </v>
   <v>       0.95099317       0.64819024       0.29156518 </v>
   <v>       0.08039015       0.21581073       0.18464858 </v>
   <v>       0.78516878       0.05287161       0.95902024 </v>
   <v>       0.83931122       0.11974634       0.60617409 </v>
   <v>       0.47795220       0.18495415       0.46414737 </v>
   <v>       0.69359317       0.72282049       0.08776680 </v>
   <v>       0.80014049       0.39878829       0.73388583 </v>
   <v>       0.44943610       0.18091512       0.14375223 </v>
   <v>       0.53654439       0.22795512       0.81051822 </v>
   <v>       0.55730829       0.85206244       0.69117571 </v>
   <v>       0.41353171       0.00680913       0.07839879 </v>
   <v>       0.23982439       0.43454439       0.41251174 </v>
   <v>       0.52649073       0.49247122       0.60787854 </v>
   <v>       0.79520293       0.33477854       0.37680324 </v>
   <v>       0.08819024       0.89774049       0.75761619 </v>
   <v>       0.75068293       0.02948546       0.29040567 </v>
   <v>       0.07416761       0.75165073       0.02621619 </v>
  </varray>
 </structure>
 <calculation>
  <scstep>
   <time name="diag">    0.24    0.26</time>
   <time name="diis">    0.34    0.34</time>
   <time name="orth">    0.02    0.02</time>
   <time name="total">    0.71    0.76</time>
   <energy>
    <i name="alphaZ">    256.70245505 </i>
    <i name="ewald">  -9887.82438888 </i>
    <i name="hartreedc">  -3370.01594424 </i>
    <i name="XCdc">    792.03401158 </i>
    <i name="pawpsdc">  10155.13001117 </i>
    <i name="pawaedc"> -10497.29644279 </i>
    <i name="eentropy">     -0.00000001 </i>
    <i name="bandstr">  -4524.02163701 </i>
    <i name="atom">  15932.49537490 </i>
    <i name="e_fr_energy">  -1142.79656023 </i>
    <i name="e_wo_entrp">  -1142.79656022 </i>
    <i name="e_0_energy">  -1142.79656022 </i>
   </energy>
  </scstep>
  <scstep>
   <time name="diag">    0.19    0.19</time>
   <time name="diis">    0.33    0.33</time>
   <time name="orth">    0.02    0.02</time>
   <time name="total">    0.54    0.54</time>
   <energy>
    <i name="e_fr_energy">    740.61450630 </i>
    <i name="e_wo_entrp">    740.64950942 </i>
    <i name="e_0_energy">    740.63200786 </i>
   </energy>
  </scstep>
  <scstep>
   <time name="diag">    0.18    0.18</time>
   <time name="diis">    0.33    0.33</time>
   <time name="orth">    0.02    0.02</time>
   <time name="total">    0.54    0.54</time>
   <energy>
    <i name="e_fr_energy">    244.79374873 </i>
    <i name="e_wo_entrp">    244.86390622 </i>
    <i name="e_0_energy">    244.82882748 </i>
   </energy>
  </scstep>
  <scstep>
   <time name="diag">    0.18    0.18</time>
   <time name="diis">    0.33    0.33</time>
   <time name="orth">    0.02    0.02</time>
   <time name="total">    0.53    0.53</time>
   <energy>
    <i name="e_fr_energy">    -13.32568980 </i>
    <i name="e_wo_entrp">    -13.27300698 </i>
    <i name="e_0_energy">    -13.29934839 </i>
   </energy>
  </scstep>
  <scstep>
   <time name="diag">    0.18    0.18</time>
   <time name="diis">    0.33    0.33</time>
   <time name="orth">    0.02    0.02</time>
   <time name="total">    0.53    0.53</time>
   <energy>
    <i name="e_fr_energy">   -125.36956901 </i>
    <i name="e_wo_entrp">   -125.36956901 </i>
    <i name="e_0_energy">   -125.36956901 </i>
   </energy>
  </scstep>
  <scstep>
   <time name="diag">    0.18    0.18</time>
   <time name="diis">    0.33    0.33</time>
   <time name="orth">    0.02    0.02</time>
   <time name="total">    0.53    0.53</time>
   <energy>
    <i name="e_fr_energy">   -171.90564523 </i>
    <i name="e_wo_entrp">   -171.90564523 </i>
    <i name="e_0_energy">   -171.90564523 </i>
   </energy>
  </scstep>
  <scstep>
   <time name="diag">    0.18    0.18</time>
   <time name="diis">    0.33    0.33</time>
   <time name="orth">    0.02    0.02</time>
   <time name="total">    0.53    0.53</time>
   <energy>
    <i name="e_fr_energy">   -194.26785037 </i>
    <i name="e_wo_entrp">   -194.26785037 </i>
    <i name="e_0_energy">   -194.26785037 </i>
   </energy>
  </scstep>
  <scstep>
   <time name="diag">    0.18    0.18</time>
   <time name="diis">    0.33    0.33</time>
   <time name="orth">    0.02    0.02</time>
   <time name="total">    0.53    0.53</time>
   <energy>
    <i name="e_fr_energy">   -207.43204279 </i>
    <i name="e_wo_entrp">   -207.43204279 </i>
    <i name="e_0_energy">   -207.43204279 </i>
   </energy>
  </scstep>
  <scstep>
   <time name="diag">    0.18    0.18</time>
   <time name="diis">    1.13    1.13</time>
   <time name="orth">    0.03    0.03</time>
   <time name="total">    1.35    1.35</time>
   <energy>
    <i name="e_fr_energy">   -242.02601256 </i>
    <i name="e_wo_entrp">   -242.02601256 </i>
    <i name="e_0_energy">   -242.02601256 </i>
   </energy>
  </scstep>
  <scstep>
   <time name="diag">    0.21    0.21</time>
   <time name="diis">    1.23    1.23</time>
   <time name="orth">    0.03    0.03</time>
   <time name="total">    1.47    1.47</time>
   <energy>
    <i name="e_fr_energy">   -260.07085784 </i>
    <i name="e_wo_entrp">   -260.07085784 </i>
    <i name="e_0_energy">   -260.07085784 </i>
   </energy>
  </scstep>
  <scstep>
   <time name="diag">    0.19    0.19</time>
   <time name="diis">    1.09    1.09</time>
   <time name="orth">    0.03    0.03</time>
   <time name="total">    1.30    1.30</time>
   <energy>
    <i name="e_fr_energy">   -263.73584306 </i>
    <i name="e_wo_entrp">   -263.73584306 </i>
    <i name="e_0_energy">   -263.73584306 </i>
   </energy>
  </scstep>
  <scstep>
   <time name="diag">    0.19    0.19</time>
   <time name="diis">    1.09    1.09</time>
   <time name="orth">    0.03    0.03</time>
   <time name="total">    1.36    1.36</time>
   <energy>
    <i name="e_fr_energy">   -265.99855246 </i>
    <i name="e_wo_entrp">   -265.99855246 </i>
    <i name="e_0_energy">   -265.99855246 </i>
   </energy>
  </scstep>
  <scstep>
   <time name="diag">    0.18    0.18</time>
   <time name="diis">    0.84    0.84</time>
   <time name="orth">    0.03    0.03</time>
   <time name="total">    1.18    1.18</time>
   <energy>
    <i name="e_fr_energy">   -256.87888871 </i>
    <i name="e_wo_entrp">   -256.87888871 </i>
    <i name="e_0_energy">   -256.87888871 </i>
   </energy>
  </scstep>
  <scstep>
   <time name="diag">    0.18    0.18</time>
   <time name="diis">    0.90    0.89</time>
   <time name="orth">    0.03    0.03</time>
   <time name="total">    1.23    1.23</time>
   <energy>
    <i name="e_fr_energy">   -255.85252467 </i>
    <i name="e_wo_entrp">   -255.85252467 </i>
    <i name="e_0_energy">   -255.85252467 </i>
   </energy>
  </scstep>
  <scstep>
   <time name="diag">    0.18    0.18</time>
   <time name="diis">    1.03    1.03</time>
   <time name="orth">    0.03    0.03</time>
   <time name="total">    1.37    1.37</time>
   <energy>
    <i name="e_fr_energy">   -255.96964613 </i>
    <i name="e_wo_entrp">   -255.96964613 </i>
    <i name="e_0_energy">   -255.96964613 </i>
   </energy>
  </scstep>
  <scstep>
   <time name="diag">    0.18    0.18</time>
   <time name="diis">    1.10    1.10</time>
   <time name="orth">    0.03    0.03</time>
   <time name="total">    1.46    1.45</time>
   <energy>
    <i name="e_fr_energy">   -256.08994375 </i>
    <i name="e_wo_entrp">   -256.08994375 </i>
    <i name="e_0_energy">   -256.08994375 </i>
   </energy>
  </scstep>
  <scstep>
   <time name="diag">    0.19    0.19</time>
   <time name="diis">    1.17    1.17</time>
   <time name="orth">    0.03    0.03</time>
   <time name="total">    1.54    1.53</time>
   <energy>
    <i name="e_fr_energy">   -256.18300957 </i>
    <i name="e_wo_entrp">   -256.18300957 </i>
    <i name="e_0_energy">   -256.18300957 </i>
   </energy>
  </scstep>
  <scstep>
   <time name="diag">    0.18    0.18</time>
   <time name="diis">    1.04    1.04</time>
   <time name="orth">    0.03    0.03</time>
   <time name="total">    1.38    1.38</time>
   <energy>
    <i name="e_fr_energy">   -256.24405766 </i>
    <i name="e_wo_entrp">   -256.24405766 </i>
    <i name="e_0_energy">   -256.24405766 </i>
   </energy>
  </scstep>
  <scstep>
   <time name="diag">    0.18    0.18</time>
   <time name="diis">    1.07    1.07</time>
   <time name="orth">    0.03    0.03</time>
   <time name="total">    1.40    1.40</time>
   <energy>
    <i name="e_fr_energy">   -256.28365187 </i>
    <i name="e_wo_entrp">   -256.28365187 </i>
    <i name="e_0_energy">   -256.28365187 </i>
   </energy>
  </scstep>
  <scstep>
   <time name="diag">    0.18    0.18</time>
   <time name="diis">    1.08    1.08</time>
   <time name="orth">    0.03    0.03</time>
   <time name="total">    1.42    1.42</time>
   <energy>
    <i name="e_fr_energy">   -256.30227437 </i>
    <i name="e_wo_entrp">   -256.30227437 </i>
    <i name="e_0_energy">   -256.30227437 </i>
   </energy>
  </scstep>
  <scstep>
   <time name="diag">    0.18    0.18</time>
   <time name="diis">    1.05    1.05</time>
   <time name="orth">    0.03    0.03</time>
   <time name="total">    1.39    1.39</time>
   <energy>
    <i name="e_fr_energy">   -256.31457543 </i>
    <i name="e_wo_entrp">   -256.31457543 </i>
    <i name="e_0_energy">   -256.31457543 </i>
   </energy>
  </scstep>
  <scstep>
   <time name="diag">    0.18    0.18</time>
   <time name="diis">    1.03    1.03</time>
   <time name="orth">    0.03    0.03</time>
   <time name="total">    1.37    1.37</time>
   <energy>
    <i name="e_fr_energy">   -256.32133187 </i>
    <i name="e_wo_entrp">   -256.32133187 </i>
    <i name="e_0_energy">   -256.32133187 </i>
   </energy>
  </scstep>
  <scstep>
   <time name="diag">    0.18    0.18</time>
   <time name="diis">    1.12    1.12</time>
   <time name="orth">    0.03    0.03</time>
   <time name="total">    1.46    1.46</time>
   <energy>
    <i name="e_fr_energy">   -256.32567714 </i>
    <i name="e_wo_entrp">   -256.32567714 </i>
    <i name="e_0_energy">   -256.32567714 </i>
   </energy>
  </scstep>
  <scstep>
   <time name="diag">    0.18    0.18</time>
   <time name="diis">    1.17    1.17</time>
   <time name="orth">    0.03    0.03</time>
   <time name="total">    1.52    1.52</time>
   <energy>
    <i name="e_fr_energy">   -256.32949570 </i>
    <i name="e_wo_entrp">   -256.32949570 </i>
    <i name="e_0_energy">   -256.32949570 </i>
   </energy>
  </scstep>
  <scstep>
   <time name="diag">    0.19    0.19</time>
   <time name="diis">    1.09    1.09</time>
   <time name="orth">    0.03    0.03</time>
   <time name="total">    1.45    1.45</time>
   <energy>
    <i name="e_fr_energy">   -256.33120985 </i>
    <i name="e_wo_entrp">   -256.33120985 </i>
    <i name="e_0_energy">   -256.33120985 </i>
   </energy>
  </scstep>
  <scstep>
   <time name="diag">    0.18    0.18</time>
   <time name="diis">    1.09    1.09</time>
   <time name="orth">    0.03    0.03</time>
   <time name="total">    1.43    1.42</time>
   <energy>
    <i name="e_fr_energy">   -256.33240665 </i>
    <i name="e_wo_entrp">   -256.33240665 </i>
    <i name="e_0_energy">   -256.33240665 </i>
   </energy>
  </scstep>
  <scstep>
   <time name="diag">    0.18    0.18</time>
   <time name="diis">    1.08    1.08</time>
   <time name="orth">    0.03    0.03</time>
   <time name="total">    1.41    1.41</time>
   <energy>
    <i name="e_fr_energy">   -256.33320511 </i>
    <i name="e_wo_entrp">   -256.33320511 </i>
    <i name="e_0_energy">   -256.33320511 </i>
   </energy>
  </scstep>
  <scstep>
   <time name="diag">    0.18    0.18</time>
   <time name="diis">    1.00    1.00</time>
   <time name="orth">    0.03    0.03</time>
   <time name="total">    1.34    1.34</time>
   <energy>
    <i name="e_fr_energy">   -256.33382976 </i>
    <i name="e_wo_entrp">   -256.33382976 </i>
    <i name="e_0_energy">   -256.33382976 </i>
   </energy>
  </scstep>
  <scstep>
   <time name="diag">    0.18    0.18</time>
   <time name="diis">    1.00    1.00</time>
   <time name="orth">    0.03    0.03</time>
   <time name="total">    1.34    1.34</time>
   <energy>
    <i name="e_fr_energy">   -256.33423839 </i>
    <i name="e_wo_entrp">   -256.33423839 </i>
    <i name="e_0_energy">   -256.33423839 </i>
   </energy>
  </scstep>
  <scstep>
   <time name="diag">    0.18    0.18</time>
   <time name="diis">    0.99    0.99</time>
   <time name="orth">    0.03    0.03</time>
   <time name="total">    1.33    1.33</time>
   <energy>
    <i name="e_fr_energy">   -256.33451391 </i>
    <i name="e_wo_entrp">   -256.33451391 </i>
    <i name="e_0_energy">   -256.33451391 </i>
   </energy>
  </scstep>
  <scstep>
   <time name="diag">    0.18    0.18</time>
   <time name="diis">    1.05    1.05</time>
   <time name="orth">    0.03    0.03</time>
   <time name="total">    1.40    1.40</time>
   <energy>
    <i name="e_fr_energy">   -256.33469510 </i>
    <i name="e_wo_entrp">   -256.33469510 </i>
    <i name="e_0_energy">   -256.33469510 </i>
   </energy>
  </scstep>
  <scstep>
   <time name="diag">    0.20    0.20</time>
   <time name="diis">    1.03    1.03</time>
   <time name="orth">    0.03    0.03</time>
   <time name="total">    1.40    1.40</time>
   <energy>
    <i name="e_fr_energy">   -256.33482455 </i>
    <i name="e_wo_entrp">   -256.33482455 </i>
    <i name="e_0_energy">   -256.33482455 </i>
   </energy>
  </scstep>
  <scstep>
   <time name="diag">    0.18    0.18</time>
   <time name="diis">    1.00    0.99</time>
   <time name="orth">    0.03    0.02</time>
   <time name="total">    1.33    1.33</time>
   <energy>
    <i name="e_fr_energy">   -256.33490841 </i>
    <i name="e_wo_entrp">   -256.33490841 </i>
    <i name="e_0_energy">   -256.33490841 </i>
   </energy>
  </scstep>
  <scstep>
   <time name="diag">    0.18    0.18</time>
   <time name="diis">    0.98    0.98</time>
   <time name="orth">    0.03    0.03</time>
   <time name="total">    1.32    1.32</time>
   <energy>
    <i name="e_fr_energy">   -256.33496910 </i>
    <i name="e_wo_entrp">   -256.33496910 </i>
    <i name="e_0_energy">   -256.33496910 </i>
   </energy>
  </scstep>
  <scstep>
   <time name="diag">    0.18    0.18</time>
   <time name="diis">    0.98    0.98</time>
   <time name="orth">    0.03    0.03</time>
   <time name="total">    1.33    1.32</time>
   <energy>
    <i name="e_fr_energy">   -256.33501252 </i>
    <i name="e_wo_entrp">   -256.33501252 </i>
    <i name="e_0_energy">   -256.33501252 </i>
   </energy>
  </scstep>
  <scstep>
   <time name="diag">    0.18    0.18</time>
   <time name="diis">    0.93    0.93</time>
   <time name="orth">    0.03    0.03</time>
   <time name="total">    1.28    1.28</time>
   <energy>
    <i name="e_fr_energy">   -256.33504283 </i>
    <i name="e_wo_entrp">   -256.33504283 </i>
    <i name="e_0_energy">   -256.33504283 </i>
   </energy>
  </scstep>
  <scstep>
   <time name="diag">    0.18    0.18</time>
   <time name="diis">    0.91    0.91</time>
   <time name="orth">    0.03    0.03</time>
   <time name="total">    1.26    1.26</time>
   <energy>
    <i name="e_fr_energy">   -256.33506280 </i>
    <i name="e_wo_entrp">   -256.33506280 </i>
    <i name="e_0_energy">   -256.33506280 </i>
   </energy>
  </scstep>
  <scstep>
   <time name="diag">    0.18    0.18</time>
   <time name="diis">    1.01    1.01</time>
   <time name="orth">    0.03    0.03</time>
   <time name="total">    1.36    1.36</time>
   <energy>
    <i name="e_fr_energy">   -256.33507723 </i>
    <i name="e_wo_entrp">   -256.33507723 </i>
    <i name="e_0_energy">   -256.33507723 </i>
   </energy>
  </scstep>
  <scstep>
   <time name="diag">    0.20    0.20</time>
   <time name="diis">    0.95    0.95</time>
   <time name="orth">    0.04    0.04</time>
   <time name="total">    1.34    1.33</time>
   <energy>
    <i name="e_fr_energy">   -256.33508989 </i>
    <i name="e_wo_entrp">   -256.33508989 </i>
    <i name="e_0_energy">   -256.33508989 </i>
   </energy>
  </scstep>
  <scstep>
   <time name="diag">    0.19    0.19</time>
   <time name="diis">    0.87    0.87</time>
   <time name="orth">    0.04    0.04</time>
   <time name="total">    1.24    1.24</time>
   <energy>
    <i name="e_fr_energy">   -256.33509649 </i>
    <i name="e_wo_entrp">   -256.33509649 </i>
    <i name="e_0_energy">   -256.33509649 </i>
   </energy>
  </scstep>
  <scstep>
   <time name="diag">    0.18    0.18</time>
   <time name="diis">    0.95    0.95</time>
   <time name="orth">    0.04    0.04</time>
   <time name="total">    1.30    1.30</time>
   <energy>
    <i name="e_fr_energy">   -256.33510241 </i>
    <i name="e_wo_entrp">   -256.33510241 </i>
    <i name="e_0_energy">   -256.33510241 </i>
   </energy>
  </scstep>
  <scstep>
   <time name="diag">    0.18    0.18</time>
   <time name="diis">    0.87    0.87</time>
   <time name="orth">    0.03    0.03</time>
   <time name="total">    1.22    1.22</time>
   <energy>
    <i name="e_fr_energy">   -256.33510664 </i>
    <i name="e_wo_entrp">   -256.33510664 </i>
    <i name="e_0_energy">   -256.33510664 </i>
   </energy>
  </scstep>
  <scstep>
   <time name="diag">    0.18    0.18</time>
   <time name="diis">    0.74    0.74</time>
   <time name="orth">    0.03    0.03</time>
   <time name="total">    1.09    1.09</time>
   <energy>
    <i name="e_fr_energy">   -256.33510964 </i>
    <i name="e_wo_entrp">   -256.33510964 </i>
    <i name="e_0_energy">   -256.33510964 </i>
   </energy>
  </scstep>
  <scstep>
   <time name="diag">    0.18    0.18</time>
   <time name="diis">    0.72    0.72</time>
   <time name="orth">    0.02    0.02</time>
   <time name="total">    1.07    1.07</time>
   <energy>
    <i name="e_fr_energy">   -256.33511168 </i>
    <i name="e_wo_entrp">   -256.33511168 </i>
    <i name="e_0_energy">   -256.33511168 </i>
   </energy>
  </scstep>
  <scstep>
   <time name="diag">    0.18    0.18</time>
   <time name="diis">    0.71    0.71</time>
   <time name="orth">    0.02    0.02</time>
   <time name="total">    1.05    1.05</time>
   <energy>
    <i name="e_fr_energy">   -256.33511321 </i>
    <i name="e_wo_entrp">   -256.33511321 </i>
    <i name="e_0_energy">   -256.33511321 </i>
   </energy>
  </scstep>
  <scstep>
   <time name="diag">    0.19    0.19</time>
   <time name="diis">    0.69    0.69</time>
   <time name="orth">    0.02    0.02</time>
   <time name="total">    1.04    1.04</time>
   <energy>
    <i name="e_fr_energy">   -256.33511435 </i>
    <i name="e_wo_entrp">   -256.33511435 </i>
    <i name="e_0_energy">   -256.33511435 </i>
   </energy>
  </scstep>
  <scstep>
   <time name="diag">    0.18    0.18</time>
   <time name="diis">    0.69    0.69</time>
   <time name="orth">    0.03    0.03</time>
   <time name="total">    1.05    1.05</time>
   <energy>
    <i name="e_fr_energy">   -256.33511519 </i>
    <i name="e_wo_entrp">   -256.33511519 </i>
    <i name="e_0_energy">   -256.33511519 </i>
   </energy>
  </scstep>
  <scstep>
   <time name="diag">    0.19    0.19</time>
   <time name="diis">    0.85    0.85</time>
   <time name="orth">    0.02    0.02</time>
   <time name="total">    1.16    1.16</time>
   <energy>
    <i name="alphaZ">    256.70245505 </i>
    <i name="ewald">  -9887.82438888 </i>
    <i name="hartreedc">  -3552.80911946 </i>
    <i name="XCdc">    806.40233727 </i>
    <i name="pawpsdc">  23174.33289251 </i>
    <i name="pawaedc"> -23530.87862294 </i>
    <i name="eentropy">     -0.00000000 </i>
    <i name="bandstr">  -3454.75604427 </i>
    <i name="atom">  15932.49537490 </i>
    <i name="e_fr_energy">   -256.33511583 </i>
    <i name="e_wo_entrp">   -256.33511583 </i>
    <i name="e_0_energy">   -256.33511583 </i>
   </energy>
  </scstep>
  <structure>
   <crystal>
    <varray name="basis" >
     <v>      10.25000000       0.00000000       0.00000000 </v>
     <v>       0.00000000      10.25000000       0.00000000 </v>
     <v>       0.00000000       0.00000000      12.35000000 </v>
    </varray>
    <i name="volume">   1297.52187500 </i>
    <varray name="rec_basis" >
     <v>       0.09756098       0.00000000       0.00000000 </v>
     <v>       0.00000000       0.09756098       0.00000000 </v>
     <v>       0.00000000       0.00000000       0.08097166 </v>
    </varray>
   </crystal>
   <varray name="positions" >
    <v>       0.63470829       0.89419220       0.01178356 </v>
    <v>       0.72612195       0.57472585       0.61156356 </v>
    <v>       0.21762537       0.17020000       0.02394397 </v>
    <v>       0.16176195       0.70425366       0.19997085 </v>
    <v>       0.29166732       0.19663024       0.32938381 </v>
    <v>       0.20628000       0.05174800       0.66136680 </v>
    <v>       0.73922146       0.56245268       0.21581296 </v>
    <v>       0.51160683       0.07862654       0.30369798 </v>
    <v>       0.98643902       0.92625171       0.58731741 </v>
    <v>       0.92992000       0.38884488       0.22966964 </v>
    <v>       0.43789268       0.97176683       0.52643158 </v>
    <v>       0.89500000       0.59305463       0.01521190 </v>
    <v>       0.00540259       0.35982341       0.73678704 </v>
    <v>       0.30030439       0.51984780       0.59782510 </v>
    <v>       0.59945268       0.23824780       0.98686640 </v>
    <v>       0.83691024       0.19312098       0.82974899 </v>
    <v>       0.61647317       0.54017073       0.99143320 </v>
    <v>       0.44507024       0.40542634       0.43549069 </v>
    <v>       0.48355902       0.65519317       0.15686721 </v>
    <v>       0.20859122       0.73821463       0.86425101 </v>
    <v>       0.68758732       0.24750146       0.22043968 </v>
    <v>       0.97345268       0.69620098       0.72699919 </v>
    <v>       0.02550439       0.36683707       0.44929069 </v>
    <v>       0.90634927       0.21649463       0.03831401 </v>
    <v>       0.71192293       0.12774927       0.44943482 </v>
    <v>       0.54469171       0.63552195       0.77555223 </v>
    <v>       0.62532488       0.83585463       0.24549798 </v>
    <v>       0.70552976       0.04853990       0.76914737 </v>
    <v>       0.59931610       0.27985268       0.61390364 </v>
    <v>       0.89663220       0.87327415       0.02724923 </v>
    <v>       0.29687220       0.60696683       0.33952713 </v>
    <v>       0.28086732       0.47684293       0.88604049 </v>
    <v>       0.09521610       0.43136000       0.98442105 </v>
    <v>       0.19719707       0.71551805       0.48619190 </v>
    <v>       0.97883902       0.62237951       0.45629150 </v>
    <v>       0.36737171       0.10808098       0.80329231 </v>
    <v>       0.38250537       0.89010341       0.22274656 </v>
    <v>       0.43828683       0.91607707       0.82866397 </v>
    <v>       0.19966146       0.90602439       0.48649474 </v>
    <v>       0.84728780       0.73712293       0.54336437 </v>
    <v>       0.02660546       0.19144098       0.58914332 </v>
    <v>       0.50340878       0.61546927       0.33490769 </v>
    <v>       0.39266244       0.62072098       0.95129555 </v>
    <v>       0.18545366       0.38339805       0.13748988 </v>
    <v>       0.18323902       0.55909854       0.74382672 </v>
    <v>       0.77158341       0.36925756       0.07567619 </v>
    <v>       0.77031024       0.55735805       0.81580567 </v>
    <v>       0.07505102       0.24458439       0.89931984 </v>
    <v>       0.95099317       0.64819024       0.29156518 </v>
    <v>       0.08039015       0.21581073       0.18464858 </v>
    <v>       0.78516878       0.05287161       0.95902024 </v>
    <v>       0.83931122       0.11974634       0.60617409 </v>
    <v>       0.47795220       0.18495415       0.46414737 </v>
    <v>       0.69359317       0.72282049       0.08776680 </v>
    <v>       0.80014049       0.39878829       0.73388583 </v>
    <v>       0.44943610       0.18091512       0.14375223 </v>
    <v>       0.53654439       0.22795512       0.81051822 </v>
    <v>       0.55730829       0.85206244       0.69117571 </v>
    <v>       0.41353171       0.00680913       0.07839879 </v>
    <v>       0.23982439       0.43454439       0.41251174 </v>
    <v>       0.52649073       0.49247122       0.60787854 </v>
    <v>       0.79520293       0.33477854       0.37680324 </v>
    <v>       0.08819024       0.89774049       0.75761619 </v>
    <v>       0.75068293       0.02948546       0.29040567 </v>
    <v>       0.07416761       0.75165073       0.02621619 </v>
   </varray>
  </structure>
  <varray name="forces" >
   <v>      -0.60968089       1.34307395      -0.79035164 </v>
   <v>       0.24655170      -0.33597815       0.23017483 </v>
   <v>       0.48717939      -0.29515103       0.37240238 </v>
   <v>      -0.28489950       0.23065270      -0.09244171 </v>
   <v>      -0.25473193       0.11025689      -0.06450464 </v>
   <v>      -0.26944194      -0.03151694      -0.11748227 </v>
   <v>       0.13331501      -0.20402822       0.07722825 </v>
   <v>       0.30467571      -0.48436689      -0.04805196 </v>
   <v>      -0.21984412       0.22485190      -0.16062722 </v>
   <v>      -0.00122012       0.10691291      -0.17657909 </v>
   <v>      -0.11215279      -0.25730011       0.22429716 </v>
   <v>      -0.30997761      -0.41933081      -0.14982472 </v>
   <v>       1.33600544      -0.05049302      -0.26292769 </v>
   <v>       0.18015106       0.16289405      -0.43206225 </v>
   <v>       0.57182668      -0.34260895       0.54114135 </v>
   <v>       0.77366578       0.86502002      -0.06323695 </v>
   <v>       0.51318624      -0.27685223      -0.29271461 </v>
   <v>       1.29110246      -0.01603751       0.07263490 </v>
   <v>      -0.48551625       0.41143544      -0.54635834 </v>
   <v>       0.10173876       0.48015907      -0.01129647 </v>
   <v>       0.18723338      -0.19514458      -0.07255234 </v>
   <v>      -0.25351424      -0.12045507      -0.02029020 </v>
   <v>      -0.62242830      -0.03703979       0.34326828 </v>
   <v>       0.50146387      -0.73849060      -0.05379136 </v>
   <v>       0.17921913       0.24639915      -0.09987998 </v>
   <v>      -0.03732294      -0.06834655      -0.03323126 </v>
   <v>       0.13724697       0.12596125       0.17795990 </v>
   <v>      -0.64819144      -0.96746267      -0.07936778 </v>
   <v>       0.15177983      -0.04385727       0.44611515 </v>
   <v>      -0.40326032       0.35165554       0.08938157 </v>
   <v>      -0.52737293       1.04653778      -0.66935691 </v>
   <v>      -0.51372017      -1.79076200      -0.73104496 </v>
   <v>      -0.24370672      -0.37330257      -0.91908908 </v>
   <v>      -0.04302878      -2.75707593       0.68897100 </v>
   <v>       1.12492559      -0.39542420       0.16294270 </v>
   <v>       1.09164517      -0.36851122       0.43811211 </v>
   <v>       0.29762092       0.10307681      -0.68110840 </v>
   <v>       0.22929113       0.06473146      -0.92193515 </v>
   <v>       0.23788169       2.43205401      -0.51050211 </v>
   <v>       0.60722415       0.64230503      -0.02103449 </v>
   <v>       0.76018007       0.66123315      -0.05820014 </v>
   <v>       0.01766621      -0.38451743       0.90410966 </v>
   <v>       0.68982413       1.05624026       0.60846140 </v>
   <v>      -0.16118188      -0.11506591      -0.19347710 </v>
   <v>      -0.48373897      -0.19279194       0.99811342 </v>
   <v>      -0.90832753       1.60544821       0.62662842 </v>
   <v>      -0.50217724       3.25322803       1.78895542 </v>
   <v>      -0.13452246       1.09388056       0.22550870 </v>
   <v>      -0.27300780      -0.01379593      -0.77965644 </v>
   <v>       0.45373978       0.09011605       0.40728988 </v>
   <v>      -0.41209819      -0.67872955      -0.15518421 </v>
   <v>      -0.71305305      -0.50419554       0.66569357 </v>
   <v>      -0.01517128      -0.61918984       0.00909874 </v>
   <v>       0.42523031      -0.86367699       0.47519489 </v>
   <v>      -0.46854078      -2.61438179      -1.60693499 </v>
   <v>       0.31195058       1.74503157       0.28773108 </v>
   <v>      -0.58505114      -0.19119287      -1.17433083 </v>
   <v>      -0.59348251       0.79610773       0.66118708 </v>
   <v>      -0.43766229      -1.71203164       0.33357663 </v>
   <v>      -0.45602928      -0.79418257       0.16976045 </v>
   <v>      -0.70952674       0.26974188       0.00695979 </v>
   <v>       0.08573771       0.37156631       0.00217371 </v>
   <v>      -0.31247092      -0.13379677       0.27075508 </v>
   <v>      -0.59443086      -0.41531470      -0.33495984 </v>
   <v>       0.17122503      -0.08817194       0.01855963 </v>
  </varray>
  <varray name="stress" >
   <v>       0.21266384      -6.87367300       1.64959801 </v>
   <v>      -6.87367299      27.61251053      -0.79044603 </v>
   <v>       1.64959800      -0.79044605       8.54017613 </v>
  </varray>
  <energy>
   <i name="e_fr_energy">   -256.33511583 </i>
   <i name="e_wo_entrp">   -256.33511583 </i>
   <i name="e_0_energy">     -0.00000000 </i>
  </energy>
  <time name="totalsc">   59.27   59.31</time>
  <eigenvalues>
   <array>
    <dimension dim="1">band</dimension>
    <dimension dim="2">kpoint</dimension>
    <dimension dim="3">spin</dimension>
    <field>eigene</field>
    <field>occ</field>
    <set>
     <set comment="spin 1">
      <set comment="kpoint 1">
       <r>  -44.3507    1.0000 </r>
       <r>  -43.8674    1.0000 </r>
       <r>  -43.8184    1.0000 </r>
       <r>  -43.8117    1.0000 </r>
       <r>  -43.7649    1.0000 </r>
       <r>  -43.7156    1.0000 </r>
       <r>  -43.6606    1.0000 </r>
       <r>  -43.6013    1.0000 </r>
       <r>  -43.5983    1.0000 </r>
       <r>  -43.5915    1.0000 </r>
       <r>  -43.5786    1.0000 </r>
       <r>  -43.5589    1.0000 </r>
       <r>  -43.5059    1.0000 </r>
       <r>  -43.4866    1.0000 </r>
       <r>  -43.3924    1.0000 </r>
       <r>  -43.3741    1.0000 </r>
       <r>  -43.3678    1.0000 </r>
       <r>  -43.3577    1.0000 </r>
       <r>  -43.3519    1.0000 </r>
       <r>  -43.3289    1.0000 </r>
       <r>  -43.2826    1.0000 </r>
       <r>  -43.2446    1.0000 </r>
       <r>  -43.2325    1.0000 </r>
       <r>  -43.2043    1.0000 </r>
       <r>  -43.1865    1.0000 </r>
       <r>  -43.0328    1.0000 </r>
       <r>  -42.9203    1.0000 </r>
       <r>  -42.8426    1.0000 </r>
       <r>  -42.7571    1.0000 </r>
       <r>  -42.2696    1.0000 </r>
       <r>  -13.9008    1.0000 </r>
       <r>  -13.6401    1.0000 </r>
       <r>  -13.4228    1.0000 </r>
       <r>  -13.3718    1.0000 </r>
       <r>  -13.2675    1.0000 </r>
       <r>  -12.8507    1.0000 </r>
       <r>  -12.8134    1.0000 </r>
       <r>  -12.7898    1.0000 </r>
       <r>  -12.6444    1.0000 </r>
       <r>  -12.5353    1.0000 </r>
       <r>  -12.2394    1.0000 </r>
       <r>  -12.0235    1.0000 </r>
       <r>  -11.8060    1.0000 </r>
       <r>  -11.6083    1.0000 </r>
       <r>  -11.4341    1.0000 </r>
       <r>  -11.0654    1.0000 </r>
       <r>  -10.7105    1.0000 </r>
       <r>  -10.4776    1.0000 </r>
       <r>  -10.3875    1.0000 </r>
       <r>  -10.0599    1.0000 </r>
       <r>   -9.6154    1.0000 </r>
       <r>   -9.4662    1.0000 </r>
       <r>   -9.4126    1.0000 </r>
       <r>   -9.2606    1.0000 </r>
       <r>   -8.9258    1.0000 </r>
       <r>   -8.5454    1.0000 </r>
       <r>   -8.1777    1.0000 </r>
       <r>   -8.0304    1.0000 </r>
       <r>   -7.9580    1.0000 </r>
       <r>   -7.6758    1.0000 </r>
       <r>   -7.6056    1.0000 </r>
       <r>   -7.4966    1.0000 </r>
       <r>   -6.5313    1.0000 </r>
       <r>   -5.9773    1.0000 </r>
       <r>   -5.3859    1.0000 </r>
       <r>   -3.7058    1.0000 </r>
       <r>   -3.5379    1.0000 </r>
       <r>   -3.4932    1.0000 </r>
       <r>   -3.2803    1.0000 </r>
       <r>   -3.1450    1.0000 </r>
       <r>   -3.0746    1.0000 </r>
       <r>   -3.0454    1.0000 </r>
       <r>   -2.9287    1.0000 </r>
       <r>   -2.7454    1.0000 </r>
       <r>   -2.6834    1.0000 </r>
       <r>   -2.5925    1.0000 </r>
       <r>   -2.5651    1.0000 </r>
       <r>   -2.5409    1.0000 </r>
       <r>   -2.4239    1.0000 </r>
       <r>   -2.3937    1.0000 </r>
       <r>   -2.3158    1.0000 </r>
       <r>   -2.2740    1.0000 </r>
       <r>   -2.1501    1.0000 </r>
       <r>   -2.1047    1.0000 </r>
       <r>   -2.0568    1.0000 </r>
       <r>   -1.9797    1.0000 </r>
       <r>   -1.9303    1.0000 </r>
       <r>   -1.8554    1.0000 </r>
       <r>   -1.8289    1.0000 </r>
       <r>   -1.7663    1.0000 </r>
       <r>   -1.7328    1.0000 </r>
       <r>   -1.6992    1.0000 </r>
       <r>   -1.5156    1.0000 </r>
       <r>   -1.4960    1.0000 </r>
       <r>   -1.4319    1.0000 </r>
       <r>   -1.4064    1.0000 </r>
       <r>   -1.3590    1.0000 </r>
       <r>   -1.3057    1.0000 </r>
       <r>   -1.2441    1.0000 </r>
       <r>   -1.2060    1.0000 </r>
       <r>   -1.1173    1.0000 </r>
       <r>   -1.0573    1.0000 </r>
       <r>   -0.9518    1.0000 </r>
       <r>   -0.8842    1.0000 </r>
       <r>   -0.8689    1.0000 </r>
       <r>   -0.8071    1.0000 </r>
       <r>   -0.7338    1.0000 </r>
       <r>   -0.7265    1.0000 </r>
       <r>   -0.6739    1.0000 </r>
       <r>   -0.6410    1.0000 </r>
       <r>   -0.5138    1.0000 </r>
       <r>   -0.4847    1.0000 </r>
       <r>   -0.4288    1.0000 </r>
       <r>   -0.3462    1.0000 </r>
       <r>   -0.3282    1.0000 </r>
       <r>   -0.2804    1.0000 </r>
       <r>   -0.1952    1.0000 </r>
       <r>   -0.1808    1.0000 </r>
       <r>   -0.0300    1.0000 </r>
       <r>   -0.0057    1.0000 </r>
       <r>    0.0412    1.0000 </r>
       <r>    0.0575    1.0000 </r>
       <r>    0.1152    1.0000 </r>
       <r>    0.1716    1.0000 </r>
       <r>    0.2216    1.0000 </r>
       <r>    0.2330    1.0000 </r>
       <r>    0.2643    1.0000 </r>
       <r>    0.3694    1.0000 </r>
       <r>    0.4658    1.0000 </r>
       <r>    0.5150    1.0000 </r>
       <r>    0.5341    1.0000 </r>
       <r>    0.5652    1.0000 </r>
       <r>    0.6711    1.0000 </r>
       <r>    0.7343    1.0000 </r>
       <r>    0.7542    1.0000 </r>
       <r>    0.8577    1.0000 </r>
       <r>    0.9476    1.0000 </r>
       <r>    1.0214    1.0000 </r>
       <r>    1.1556    1.0000 </r>
       <r>    1.2086    1.0000 </r>
       <r>    1.2478    1.0000 </r>
       <r>    1.4521    1.0000 </r>
       <r>    1.4891    1.0000 </r>
       <r>    1.5435    1.0000 </r>
       <r>    1.6405    1.0000 </r>
       <r>    1.6862    1.0000 </r>
       <r>    1.8499    1.0000 </r>
       <r>    1.9221    1.0000 </r>
       <r>    1.9720    1.0000 </r>
       <r>    2.1538    1.0000 </r>
       <r>    3.6259    0.0000 </r>
       <r>    3.8012    0.0000 </r>
       <r>    3.9615    0.0000 </r>
       <r>    4.2247    0.0000 </r>
       <r>    4.2734    0.0000 </r>
       <r>    4.3873    0.0000 </r>
       <r>    4.4885    0.0000 </r>
       <r>    4.7031    0.0000 </r>
       <r>    4.7901    0.0000 </r>
       <r>    4.8899    0.0000 </r>
       <r>    4.9993    0.0000 </r>
       <r>    5.0684    0.0000 </r>
       <r>    5.3353    0.0000 </r>
       <r>    5.3989    0.0000 </r>
       <r>    5.4622    0.0000 </r>
       <r>    5.5952    0.0000 </r>
       <r>    5.6280    0.0000 </r>
       <r>    5.7847    0.0000 </r>
       <r>    6.0587    0.0000 </r>
       <r>    6.1074    0.0000 </r>
       <r>    6.2527    0.0000 </r>
       <r>    6.3412    0.0000 </r>
       <r>    6.4491    0.0000 </r>
       <r>    6.5035    0.0000 </r>
       <r>    6.5457    0.0000 </r>
       <r>    6.6382    0.0000 </r>
       <r>    6.7552    0.0000 </r>
       <r>    6.7807    0.0000 </r>
       <r>    6.9289    0.0000 </r>
       <r>    7.0108    0.0000 </r>
       <r>    7.1333    0.0000 </r>
       <r>    7.1587    0.0000 </r>
       <r>    7.3393    0.0000 </r>
       <r>    7.5567    0.0000 </r>
      </set>
     </set>
    </set>
   </array>
  </eigenvalues>
  <separator name="orbital magnetization" >
   <v name="MAGDIPOLOUT">      0.00000000      0.00000000      0.00000000</v>
  </separator>
  <dos>
   <i name="efermi">      2.39626774 </i>
   <total>
    <array>
     <dimension dim="1">gridpoints</dimension>
     <dimension dim="2">spin</dimension>
     <field>energy</field>
     <field>total</field>
     <field>integrated</field>
     <set>
      <set comment="spin 1">
       <r>   -46.9461     0.0000     0.0000 </r>
       <r>   -46.7558     0.0000     0.0000 </r>
       <r>   -46.5655     0.0000     0.0000 </r>
       <r>   -46.3751     0.0000     0.0000 </r>
       <r>   -46.1848     0.0000     0.0000 </r>
       <r>   -45.9945     0.0000     0.0000 </r>
       <r>   -45.8041     0.0000     0.0000 </r>
       <r>   -45.6138     0.0000     0.0000 </r>
       <r>   -45.4235     0.0000     0.0000 </r>
       <r>   -45.2332     0.0000     0.0000 </r>
       <r>   -45.0428     0.0000     0.0000 </r>
       <r>   -44.8525     0.0000     0.0000 </r>
       <r>   -44.6622     0.0000     0.0000 </r>
       <r>   -44.4719     0.0032     0.0006 </r>
       <r>   -44.2815    10.2408     1.9497 </r>
       <r>   -44.0912     0.2642     2.0000 </r>
       <r>   -43.9009     1.9737     2.3757 </r>
       <r>   -43.7105    46.0728    11.1446 </r>
       <r>   -43.5202    70.4935    24.5614 </r>
       <r>   -43.3299    68.7311    37.6428 </r>
       <r>   -43.1396    63.5588    49.7398 </r>
       <r>   -42.9492    13.9642    52.3976 </r>
       <r>   -42.7589    23.8711    56.9409 </r>
       <r>   -42.5686     5.5646    58.0000 </r>
       <r>   -42.3783     0.0112    58.0021 </r>
       <r>   -42.1879    10.3877    59.9792 </r>
       <r>   -41.9976     0.1093    60.0000 </r>
       <r>   -41.8073     0.0000    60.0000 </r>
       <r>   -41.6169     0.0000    60.0000 </r>
       <r>   -41.4266     0.0000    60.0000 </r>
       <r>   -41.2363     0.0000    60.0000 </r>
       <r>   -41.0460     0.0000    60.0000 </r>
       <r>   -40.8556     0.0000    60.0000 </r>
       <r>   -40.6653     0.0000    60.0000 </r>
       <r>   -40.4750     0.0000    60.0000 </r>
       <r>   -40.2847     0.0000    60.0000 </r>
       <r>   -40.0943     0.0000    60.0000 </r>
       <r>   -39.9040     0.0000    60.0000 </r>
       <r>   -39.7137     0.0000    60.0000 </r>
       <r>   -39.5233     0.0000    60.0000 </r>
       <r>   -39.3330     0.0000    60.0000 </r>
       <r>   -39.1427     0.0000    60.0000 </r>
       <r>   -38.9524     0.0000    60.0000 </r>
       <r>   -38.7620     0.0000    60.0000 </r>
       <r>   -38.5717     0.0000    60.0000 </r>
       <r>   -38.3814     0.0000    60.0000 </r>
       <r>   -38.1910     0.0000    60.0000 </r>
       <r>   -38.0007     0.0000    60.0000 </r>
       <r>   -37.8104     0.0000    60.0000 </r>
       <r>   -37.6201     0.0000    60.0000 </r>
       <r>   -37.4297     0.0000    60.0000 </r>
       <r>   -37.2394     0.0000    60.0000 </r>
       <r>   -37.0491     0.0000    60.0000 </r>
       <r>   -36.8588     0.0000    60.0000 </r>
       <r>   -36.6684     0.0000    60.0000 </r>
       <r>   -36.4781     0.0000    60.0000 </r>
       <r>   -36.2878     0.0000    60.0000 </r>
       <r>   -36.0974     0.0000    60.0000 </r>
       <r>   -35.9071     0.0000    60.0000 </r>
       <r>   -35.7168     0.0000    60.0000 </r>
       <r>   -35.5265     0.0000    60.0000 </r>
       <r>   -35.3361     0.0000    60.0000 </r>
       <r>   -35.1458     0.0000    60.0000 </r>
       <r>   -34.9555     0.0000    60.0000 </r>
       <r>   -34.7652     0.0000    60.0000 </r>
       <r>   -34.5748     0.0000    60.0000 </r>
       <r>   -34.3845     0.0000    60.0000 </r>
       <r>   -34.1942     0.0000    60.0000 </r>
       <r>   -34.0038     0.0000    60.0000 </r>
       <r>   -33.8135     0.0000    60.0000 </r>
       <r>   -33.6232     0.0000    60.0000 </r>
       <r>   -33.4329     0.0000    60.0000 </r>
       <r>   -33.2425     0.0000    60.0000 </r>
       <r>   -33.0522     0.0000    60.0000 </r>
       <r>   -32.8619     0.0000    60.0000 </r>
       <r>   -32.6716     0.0000    60.0000 </r>
       <r>   -32.4812     0.0000    60.0000 </r>
       <r>   -32.2909     0.0000    60.0000 </r>
       <r>   -32.1006     0.0000    60.0000 </r>
       <r>   -31.9102     0.0000    60.0000 </r>
       <r>   -31.7199     0.0000    60.0000 </r>
       <r>   -31.5296     0.0000    60.0000 </r>
       <r>   -31.3393     0.0000    60.0000 </r>
       <r>   -31.1489     0.0000    60.0000 </r>
       <r>   -30.9586     0.0000    60.0000 </r>
       <r>   -30.7683     0.0000    60.0000 </r>
       <r>   -30.5780     0.0000    60.0000 </r>
       <r>   -30.3876     0.0000    60.0000 </r>
       <r>   -30.1973     0.0000    60.0000 </r>
       <r>   -30.0070     0.0000    60.0000 </r>
       <r>   -29.8166     0.0000    60.0000 </r>
       <r>   -29.6263     0.0000    60.0000 </r>
       <r>   -29.4360     0.0000    60.0000 </r>
       <r>   -29.2457     0.0000    60.0000 </r>
       <r>   -29.0553     0.0000    60.0000 </r>
       <r>   -28.8650     0.0000    60.0000 </r>
       <r>   -28.6747     0.0000    60.0000 </r>
       <r>   -28.4844     0.0000    60.0000 </r>
       <r>   -28.2940     0.0000    60.0000 </r>
       <r>   -28.1037     0.0000    60.0000 </r>
       <r>   -27.9134     0.0000    60.0000 </r>
       <r>   -27.7230     0.0000    60.0000 </r>
       <r>   -27.5327     0.0000    60.0000 </r>
       <r>   -27.3424     0.0000    60.0000 </r>
       <r>   -27.1521     0.0000    60.0000 </r>
       <r>   -26.9617     0.0000    60.0000 </r>
       <r>   -26.7714     0.0000    60.0000 </r>
       <r>   -26.5811     0.0000    60.0000 </r>
       <r>   -26.3908     0.0000    60.0000 </r>
       <r>   -26.2004     0.0000    60.0000 </r>
       <r>   -26.0101     0.0000    60.0000 </r>
       <r>   -25.8198     0.0000    60.0000 </r>
       <r>   -25.6294     0.0000    60.0000 </r>
       <r>   -25.4391     0.0000    60.0000 </r>
       <r>   -25.2488     0.0000    60.0000 </r>
       <r>   -25.0585     0.0000    60.0000 </r>
       <r>   -24.8681     0.0000    60.0000 </r>
       <r>   -24.6778     0.0000    60.0000 </r>
       <r>   -24.4875     0.0000    60.0000 </r>
       <r>   -24.2971     0.0000    60.0000 </r>
       <r>   -24.1068     0.0000    60.0000 </r>
       <r>   -23.9165     0.0000    60.0000 </r>
       <r>   -23.7262     0.0000    60.0000 </r>
       <r>   -23.5358     0.0000    60.0000 </r>
       <r>   -23.3455     0.0000    60.0000 </r>
       <r>   -23.1552     0.0000    60.0000 </r>
       <r>   -22.9649     0.0000    60.0000 </r>
       <r>   -22.7745     0.0000    60.0000 </r>
       <r>   -22.5842     0.0000    60.0000 </r>
       <r>   -22.3939     0.0000    60.0000 </r>
       <r>   -22.2035     0.0000    60.0000 </r>
       <r>   -22.0132     0.0000    60.0000 </r>
       <r>   -21.8229     0.0000    60.0000 </r>
       <r>   -21.6326     0.0000    60.0000 </r>
       <r>   -21.4422     0.0000    60.0000 </r>
       <r>   -21.2519     0.0000    60.0000 </r>
       <r>   -21.0616     0.0000    60.0000 </r>
       <r>   -20.8713     0.0000    60.0000 </r>
       <r>   -20.6809     0.0000    60.0000 </r>
       <r>   -20.4906     0.0000    60.0000 </r>
       <r>   -20.3003     0.0000    60.0000 </r>
       <r>   -20.1099     0.0000    60.0000 </r>
       <r>   -19.9196     0.0000    60.0000 </r>
       <r>   -19.7293     0.0000    60.0000 </r>
       <r>   -19.5390     0.0000    60.0000 </r>
       <r>   -19.3486     0.0000    60.0000 </r>
       <r>   -19.1583     0.0000    60.0000 </r>
       <r>   -18.9680     0.0000    60.0000 </r>
       <r>   -18.7777     0.0000    60.0000 </r>
       <r>   -18.5873     0.0000    60.0000 </r>
       <r>   -18.3970     0.0000    60.0000 </r>
       <r>   -18.2067     0.0000    60.0000 </r>
       <r>   -18.0163     0.0000    60.0000 </r>
       <r>   -17.8260     0.0000    60.0000 </r>
       <r>   -17.6357     0.0000    60.0000 </r>
       <r>   -17.4454     0.0000    60.0000 </r>
       <r>   -17.2550     0.0000    60.0000 </r>
       <r>   -17.0647     0.0000    60.0000 </r>
       <r>   -16.8744     0.0000    60.0000 </r>
       <r>   -16.6841     0.0000    60.0000 </r>
       <r>   -16.4937     0.0000    60.0000 </r>
       <r>   -16.3034     0.0000    60.0000 </r>
       <r>   -16.1131     0.0000    60.0000 </r>
       <r>   -15.9227     0.0000    60.0000 </r>
       <r>   -15.7324     0.0000    60.0000 </r>
       <r>   -15.5421     0.0000    60.0000 </r>
       <r>   -15.3518     0.0000    60.0000 </r>
       <r>   -15.1614     0.0000    60.0000 </r>
       <r>   -14.9711     0.0000    60.0000 </r>
       <r>   -14.7808     0.0000    60.0000 </r>
       <r>   -14.5905     0.0000    60.0000 </r>
       <r>   -14.4001     0.0000    60.0000 </r>
       <r>   -14.2098     0.0000    60.0000 </r>
       <r>   -14.0195     0.0041    60.0008 </r>
       <r>   -13.8291    10.2792    61.9572 </r>
       <r>   -13.6388     5.6354    63.0298 </r>
       <r>   -13.4485     7.7093    64.4971 </r>
       <r>   -13.2582    24.7426    69.2063 </r>
       <r>   -13.0678     4.1704    70.0000 </r>
       <r>   -12.8775     2.7938    70.5317 </r>
       <r>   -12.6872    29.8984    76.2222 </r>
       <r>   -12.4969    18.3911    79.7225 </r>
       <r>   -12.3065     1.7608    80.0577 </r>
       <r>   -12.1162    10.2485    82.0082 </r>
       <r>   -11.9259    10.4383    83.9949 </r>
       <r>   -11.7355    10.2936    85.9541 </r>
       <r>   -11.5452    10.3681    87.9274 </r>
       <r>   -11.3549    10.7580    89.9750 </r>
       <r>   -11.1646     0.1581    90.0050 </r>
       <r>   -10.9742    10.4297    91.9901 </r>
       <r>   -10.7839     0.2510    92.0379 </r>
       <r>   -10.5936    10.3097    94.0001 </r>
       <r>   -10.4032    13.7675    96.6204 </r>
       <r>   -10.2129     7.2486    98.0000 </r>
       <r>   -10.0226     8.9750    99.7082 </r>
       <r>    -9.8323     1.5332   100.0000 </r>
       <r>    -9.6419     2.3782   100.4526 </r>
       <r>    -9.4516    16.4876   103.5907 </r>
       <r>    -9.2613    17.8340   106.9850 </r>
       <r>    -9.0710     5.3332   108.0000 </r>
       <r>    -8.8806     9.4499   109.7986 </r>
       <r>    -8.6903     1.0583   110.0000 </r>
       <r>    -8.5000     9.4616   111.8008 </r>
       <r>    -8.3096     1.0474   112.0002 </r>
       <r>    -8.1193    10.0506   113.9131 </r>
       <r>    -7.9290    19.2851   117.5836 </r>
       <r>    -7.7387     2.5859   118.0757 </r>
       <r>    -7.5483    20.8174   122.0378 </r>
       <r>    -7.3580    10.3089   123.9999 </r>
       <r>    -7.1677     0.0005   124.0000 </r>
       <r>    -6.9774     0.0000   124.0000 </r>
       <r>    -6.7870     0.0000   124.0000 </r>
       <r>    -6.5967     0.3383   124.0644 </r>
       <r>    -6.4064    10.1678   125.9996 </r>
       <r>    -6.2160     0.0022   126.0000 </r>
       <r>    -6.0257     0.8955   126.1704 </r>
       <r>    -5.8354     9.6124   127.9999 </r>
       <r>    -5.6451     0.0003   128.0000 </r>
       <r>    -5.4547     0.2712   128.0516 </r>
       <r>    -5.2644    10.2339   129.9994 </r>
       <r>    -5.0741     0.0031   130.0000 </r>
       <r>    -4.8838     0.0000   130.0000 </r>
       <r>    -4.6934     0.0000   130.0000 </r>
       <r>    -4.5031     0.0000   130.0000 </r>
       <r>    -4.3128     0.0000   130.0000 </r>
       <r>    -4.1224     0.0000   130.0000 </r>
       <r>    -3.9321     0.0000   130.0000 </r>
       <r>    -3.7418     1.6232   130.3089 </r>
       <r>    -3.5515    13.0859   132.7995 </r>
       <r>    -3.3611    16.9315   136.0221 </r>
       <r>    -3.1708    12.8590   138.4695 </r>
       <r>    -2.9805    29.4180   144.0685 </r>
       <r>    -2.7902    11.2385   146.2075 </r>
       <r>    -2.5998    26.4379   151.2394 </r>
       <r>    -2.4095    35.4102   157.9789 </r>
       <r>    -2.2192    31.2395   163.9247 </r>
       <r>    -2.0288    30.3875   169.7082 </r>
       <r>    -1.8385    34.0447   176.1879 </r>
       <r>    -1.6482    40.1726   183.8338 </r>
       <r>    -1.4579    23.0900   188.2284 </r>
       <r>    -1.2675    42.4061   196.2995 </r>
       <r>    -1.0772    31.6145   202.3166 </r>
       <r>    -0.8869    27.2787   207.5085 </r>
       <r>    -0.6966    44.3416   215.9479 </r>
       <r>    -0.5062    30.4377   221.7410 </r>
       <r>    -0.3159    39.1706   229.1963 </r>
       <r>    -0.1256    34.9088   235.8404 </r>
       <r>     0.0648    36.3514   242.7590 </r>
       <r>     0.2551    48.0436   251.9031 </r>
       <r>     0.4454    24.6535   256.5953 </r>
       <r>     0.6357    40.3403   264.2732 </r>
       <r>     0.8261    31.7729   270.3204 </r>
       <r>     1.0164    23.7282   274.8366 </r>
       <r>     1.2067    22.1567   279.0536 </r>
       <r>     1.3970    16.1570   282.1287 </r>
       <r>     1.5874    30.4195   287.9184 </r>
       <r>     1.7777    21.6100   292.0314 </r>
       <r>     1.9680    24.6186   296.7169 </r>
       <r>     2.1584    12.5304   299.1018 </r>
       <r>     2.3487     4.7191   300.0000 </r>
       <r>     2.5390     0.0000   300.0000 </r>
       <r>     2.7293     0.0000   300.0000 </r>
       <r>     2.9197     0.0000   300.0000 </r>
       <r>     3.1100     0.0000   300.0000 </r>
       <r>     3.3003     0.0000   300.0000 </r>
       <r>     3.4907     0.0007   300.0001 </r>
       <r>     3.6810     9.8829   301.8811 </r>
       <r>     3.8713    10.9406   303.9634 </r>
       <r>     4.0616    10.6762   305.9954 </r>
       <r>     4.2520    11.0807   308.1043 </r>
       <r>     4.4423    20.8413   312.0710 </r>
       <r>     4.6326    10.3778   314.0462 </r>
       <r>     4.8229    19.2224   317.7047 </r>
       <r>     5.0133    19.5484   321.4253 </r>
       <r>     5.2036    13.5279   324.0001 </r>
       <r>     5.3939    14.9469   326.8449 </r>
       <r>     5.5843    21.6909   330.9732 </r>
       <r>     5.7746    19.9679   334.7737 </r>
       <r>     5.9649     6.4854   336.0080 </r>
       <r>     6.1552    20.0460   339.8233 </r>
       <r>     6.3456    17.1798   343.0931 </r>
       <r>     6.5359    27.9432   348.4115 </r>
       <r>     6.7262    21.6048   352.5235 </r>
       <r>     6.9165    22.1196   356.7334 </r>
       <r>     7.1069    20.2673   360.5909 </r>
       <r>     7.2972    19.1404   364.2338 </r>
       <r>     7.4875     9.5438   366.0503 </r>
       <r>     7.6779    10.2409   367.9994 </r>
[...]
        <r>  0.0004  0.0036  0.0017  0.0020  0.0000  0.0000  0.0000  0.0000  0.0000 </r>
        <r>  0.0006  0.0001  0.0013  0.0005  0.0000  0.0000  0.0000  0.0000  0.0000 </r>
        <r>  0.0000  0.0003  0.0001  0.0003  0.0000  0.0000  0.0000  0.0000  0.0000 </r>
        <r>  0.0018  0.0003  0.0003  0.0006  0.0000  0.0000  0.0000  0.0000  0.0000 </r>
        <r>  0.0005  0.0003  0.0001  0.0006  0.0000  0.0000  0.0000  0.0000  0.0000 </r>
        <r>  0.0001  0.0000  0.0001  0.0006  0.0000  0.0000  0.0000  0.0000  0.0000 </r>
        <r>  0.0005  0.0009  0.0021  0.0003  0.0000  0.0000  0.0000  0.0000  0.0000 </r>
        <r>  0.0014  0.0041  0.0001  0.0025  0.0000  0.0000  0.0000  0.0000  0.0000 </r>
        <r>  0.0001  0.0002  0.0002  0.0024  0.0000  0.0000  0.0000  0.0000  0.0000 </r>
        <r>  0.0007  0.0008  0.0002  0.0004  0.0000  0.0000  0.0000  0.0000  0.0000 </r>
        <r>  0.0017  0.0010  0.0009  0.0046  0.0000  0.0000  0.0000  0.0000  0.0000 </r>
        <r>  0.0002  0.0004  0.0015  0.0005  0.0000  0.0000  0.0000  0.0000  0.0000 </r>
        <r>  0.0009  0.0027  0.0003  0.0002  0.0000  0.0000  0.0000  0.0000  0.0000 </r>
        <r>  0.0002  0.0004  0.0004  0.0004  0.0000  0.0000  0.0000  0.0000  0.0000 </r>
        <r>  0.0008  0.0004  0.0003  0.0003  0.0000  0.0000  0.0000  0.0000  0.0000 </r>
        <r>  0.0001  0.0017  0.0005  0.0027  0.0000  0.0000  0.0000  0.0000  0.0000 </r>
        <r>  0.0004  0.0002  0.0010  0.0007  0.0000  0.0000  0.0000  0.0000  0.0000 </r>
        <r>  0.0001  0.0006  0.0023  0.0001  0.0000  0.0000  0.0000  0.0000  0.0000 </r>
        <r>  0.0006  0.0000  0.0001  0.0013  0.0000  0.0000  0.0000  0.0000  0.0000 </r>
        <r>  0.0004  0.0009  0.0001  0.0008  0.0000  0.0000  0.0000  0.0000  0.0000 </r>
        <r>  0.0006  0.0052  0.0004  0.0011  0.0000  0.0000  0.0000  0.0000  0.0000 </r>
        <r>  0.0004  0.0003  0.0006  0.0015  0.0000  0.0000  0.0000  0.0000  0.0000 </r>
        <r>  0.0003  0.0002  0.0016  0.0003  0.0000  0.0000  0.0000  0.0000  0.0000 </r>
        <r>  0.0002  0.0012  0.0010  0.0009  0.0000  0.0000  0.0000  0.0000  0.0000 </r>
        <r>  0.0024  0.0032  0.0017  0.0028  0.0000  0.0000  0.0000  0.0000  0.0000 </r>
        <r>  0.0010  0.0003  0.0026  0.0003  0.0000  0.0000  0.0000  0.0000  0.0000 </r>
        <r>  0.0003  0.0010  0.0011  0.0002  0.0000  0.0000  0.0000  0.0000  0.0000 </r>
        <r>  0.0002  0.0013  0.0003  0.0006  0.0000  0.0000  0.0000  0.0000  0.0000 </r>
        <r>  0.0000  0.0015  0.0015  0.0001  0.0000  0.0000  0.0000  0.0000  0.0000 </r>
        <r>  0.0008  0.0001  0.0004  0.0005  0.0000  0.0000  0.0000  0.0000  0.0000 </r>
        <r>  0.0004  0.0002  0.0002  0.0001  0.0000  0.0000  0.0000  0.0000  0.0000 </r>
        <r>  0.0002  0.0008  0.0011  0.0016  0.0000  0.0000  0.0000  0.0000  0.0000 </r>
        <r>  0.0009  0.0012  0.0002  0.0022  0.0000  0.0000  0.0000  0.0000  0.0000 </r>
        <r>  0.0006  0.0011  0.0001  0.0004  0.0000  0.0000  0.0000  0.0000  0.0000 </r>
        <r>  0.0016  0.0002  0.0005  0.0007  0.0000  0.0000  0.0000  0.0000  0.0000 </r>
        <r>  0.0037  0.0008  0.0001  0.0009  0.0000  0.0000  0.0000  0.0000  0.0000 </r>
        <r>  0.0021  0.0001  0.0001  0.0010  0.0000  0.0000  0.0000  0.0000  0.0000 </r>
        <r>  0.0007  0.0001  0.0001  0.0023  0.0000  0.0000  0.0000  0.0000  0.0000 </r>
        <r>  0.0016  0.0014  0.0001  0.0005  0.0000  0.0000  0.0000  0.0000  0.0000 </r>
       </set>
       <set comment="band 183">
        <r>  0.0005  0.0002  0.0001  0.0002  0.0000  0.0000  0.0000  0.0000  0.0000 </r>
        <r>  0.0029  0.0000  0.0010  0.0001  0.0000  0.0000  0.0000  0.0000  0.0000 </r>
        <r>  0.0006  0.0005  0.0010  0.0008  0.0000  0.0000  0.0000  0.0000  0.0000 </r>
        <r>  0.0002  0.0003  0.0005  0.0001  0.0000  0.0000  0.0000  0.0000  0.0000 </r>
        <r>  0.0003  0.0015  0.0000  0.0011  0.0000  0.0000  0.0000  0.0000  0.0000 </r>
        <r>  0.0006  0.0001  0.0005  0.0002  0.0000  0.0000  0.0000  0.0000  0.0000 </r>
        <r>  0.0003  0.0002  0.0000  0.0007  0.0000  0.0000  0.0000  0.0000  0.0000 </r>
        <r>  0.0004  0.0003  0.0001  0.0034  0.0000  0.0000  0.0000  0.0000  0.0000 </r>
        <r>  0.0018  0.0004  0.0015  0.0000  0.0000  0.0000  0.0000  0.0000  0.0000 </r>
        <r>  0.0007  0.0006  0.0001  0.0022  0.0000  0.0000  0.0000  0.0000  0.0000 </r>
        <r>  0.0001  0.0012  0.0000  0.0005  0.0000  0.0000  0.0000  0.0000  0.0000 </r>
        <r>  0.0000  0.0000  0.0009  0.0007  0.0000  0.0000  0.0000  0.0000  0.0000 </r>
        <r>  0.0007  0.0022  0.0001  0.0004  0.0000  0.0000  0.0000  0.0000  0.0000 </r>
        <r>  0.0000  0.0014  0.0002  0.0001  0.0000  0.0000  0.0000  0.0000  0.0000 </r>
        <r>  0.0004  0.0012  0.0008  0.0002  0.0000  0.0000  0.0000  0.0000  0.0000 </r>
        <r>  0.0017  0.0041  0.0025  0.0011  0.0000  0.0000  0.0000  0.0000  0.0000 </r>
        <r>  0.0000  0.0001  0.0000  0.0003  0.0000  0.0000  0.0000  0.0000  0.0000 </r>
        <r>  0.0002  0.0001  0.0026  0.0000  0.0000  0.0000  0.0000  0.0000  0.0000 </r>
        <r>  0.0004  0.0005  0.0006  0.0002  0.0000  0.0000  0.0000  0.0000  0.0000 </r>
        <r>  0.0003  0.0000  0.0000  0.0000  0.0000  0.0000  0.0000  0.0000  0.0000 </r>
        <r>  0.0001  0.0000  0.0001  0.0015  0.0000  0.0000  0.0000  0.0000  0.0000 </r>
        <r>  0.0006  0.0013  0.0020  0.0005  0.0000  0.0000  0.0000  0.0000  0.0000 </r>
        <r>  0.0003  0.0002  0.0003  0.0000  0.0000  0.0000  0.0000  0.0000  0.0000 </r>
        <r>  0.0000  0.0000  0.0012  0.0006  0.0000  0.0000  0.0000  0.0000  0.0000 </r>
        <r>  0.0002  0.0007  0.0002  0.0014  0.0000  0.0000  0.0000  0.0000  0.0000 </r>
        <r>  0.0006  0.0013  0.0004  0.0007  0.0000  0.0000  0.0000  0.0000  0.0000 </r>
        <r>  0.0001  0.0002  0.0015  0.0002  0.0000  0.0000  0.0000  0.0000  0.0000 </r>
        <r>  0.0008  0.0022  0.0001  0.0031  0.0000  0.0000  0.0000  0.0000  0.0000 </r>
        <r>  0.0009  0.0007  0.0006  0.0002  0.0000  0.0000  0.0000  0.0000  0.0000 </r>
        <r>  0.0005  0.0001  0.0008  0.0001  0.0000  0.0000  0.0000  0.0000  0.0000 </r>
        <r>  0.0008  0.0010  0.0006  0.0007  0.0000  0.0000  0.0000  0.0000  0.0000 </r>
        <r>  0.0004  0.0005  0.0010  0.0020  0.0000  0.0000  0.0000  0.0000  0.0000 </r>
        <r>  0.0010  0.0014  0.0054  0.0001  0.0000  0.0000  0.0000  0.0000  0.0000 </r>
        <r>  0.0010  0.0051  0.0009  0.0011  0.0000  0.0000  0.0000  0.0000  0.0000 </r>
        <r>  0.0004  0.0006  0.0020  0.0005  0.0000  0.0000  0.0000  0.0000  0.0000 </r>
        <r>  0.0003  0.0005  0.0001  0.0011  0.0000  0.0000  0.0000  0.0000  0.0000 </r>
        <r>  0.0005  0.0008  0.0003  0.0004  0.0000  0.0000  0.0000  0.0000  0.0000 </r>
        <r>  0.0002  0.0009  0.0001  0.0002  0.0000  0.0000  0.0000  0.0000  0.0000 </r>
        <r>  0.0000  0.0019  0.0010  0.0004  0.0000  0.0000  0.0000  0.0000  0.0000 </r>
        <r>  0.0011  0.0001  0.0001  0.0007  0.0000  0.0000  0.0000  0.0000  0.0000 </r>
        <r>  0.0004  0.0003  0.0003  0.0008  0.0000  0.0000  0.0000  0.0000  0.0000 </r>
        <r>  0.0000  0.0008  0.0002  0.0008  0.0000  0.0000  0.0000  0.0000  0.0000 </r>
        <r>  0.0001  0.0006  0.0016  0.0006  0.0000  0.0000  0.0000  0.0000  0.0000 </r>
        <r>  0.0001  0.0002  0.0009  0.0006  0.0000  0.0000  0.0000  0.0000  0.0000 </r>
        <r>  0.0015  0.0007  0.0004  0.0015  0.0000  0.0000  0.0000  0.0000  0.0000 </r>
        <r>  0.0013  0.0003  0.0028  0.0012  0.0000  0.0000  0.0000  0.0000  0.0000 </r>
        <r>  0.0001  0.0035  0.0016  0.0024  0.0000  0.0000  0.0000  0.0000  0.0000 </r>
        <r>  0.0008  0.0001  0.0010  0.0010  0.0000  0.0000  0.0000  0.0000  0.0000 </r>
        <r>  0.0003  0.0003  0.0020  0.0006  0.0000  0.0000  0.0000  0.0000  0.0000 </r>
        <r>  0.0004  0.0001  0.0001  0.0003  0.0000  0.0000  0.0000  0.0000  0.0000 </r>
        <r>  0.0006  0.0000  0.0010  0.0006  0.0000  0.0000  0.0000  0.0000  0.0000 </r>
        <r>  0.0014  0.0004  0.0011  0.0013  0.0000  0.0000  0.0000  0.0000  0.0000 </r>
        <r>  0.0001  0.0002  0.0020  0.0004  0.0000  0.0000  0.0000  0.0000  0.0000 </r>
        <r>  0.0013  0.0008  0.0007  0.0003  0.0000  0.0000  0.0000  0.0000  0.0000 </r>
        <r>  0.0023  0.0045  0.0028  0.0001  0.0000  0.0000  0.0000  0.0000  0.0000 </r>
        <r>  0.0005  0.0064  0.0007  0.0010  0.0000  0.0000  0.0000  0.0000  0.0000 </r>
        <r>  0.0006  0.0002  0.0002  0.0003  0.0000  0.0000  0.0000  0.0000  0.0000 </r>
        <r>  0.0003  0.0002  0.0003  0.0002  0.0000  0.0000  0.0000  0.0000  0.0000 </r>
        <r>  0.0013  0.0022  0.0015  0.0001  0.0000  0.0000  0.0000  0.0000  0.0000 </r>
        <r>  0.0000  0.0030  0.0029  0.0001  0.0000  0.0000  0.0000  0.0000  0.0000 </r>
        <r>  0.0020  0.0002  0.0047  0.0003  0.0000  0.0000  0.0000  0.0000  0.0000 </r>
        <r>  0.0015  0.0002  0.0002  0.0003  0.0000  0.0000  0.0000  0.0000  0.0000 </r>
        <r>  0.0000  0.0004  0.0005  0.0006  0.0000  0.0000  0.0000  0.0000  0.0000 </r>
        <r>  0.0000  0.0001  0.0002  0.0052  0.0000  0.0000  0.0000  0.0000  0.0000 </r>
        <r>  0.0002  0.0002  0.0003  0.0001  0.0000  0.0000  0.0000  0.0000  0.0000 </r>
       </set>
       <set comment="band 184">
        <r>  0.0003  0.0002  0.0003  0.0001  0.0000  0.0000  0.0000  0.0000  0.0000 </r>
        <r>  0.0001  0.0004  0.0007  0.0007  0.0000  0.0000  0.0000  0.0000  0.0000 </r>
        <r>  0.0009  0.0003  0.0014  0.0008  0.0000  0.0000  0.0000  0.0000  0.0000 </r>
        <r>  0.0005  0.0018  0.0003  0.0000  0.0000  0.0000  0.0000  0.0000  0.0000 </r>
        <r>  0.0004  0.0004  0.0016  0.0003  0.0000  0.0000  0.0000  0.0000  0.0000 </r>
        <r>  0.0001  0.0000  0.0001  0.0007  0.0000  0.0000  0.0000  0.0000  0.0000 </r>
        <r>  0.0012  0.0013  0.0004  0.0015  0.0000  0.0000  0.0000  0.0000  0.0000 </r>
        <r>  0.0002  0.0003  0.0015  0.0005  0.0000  0.0000  0.0000  0.0000  0.0000 </r>
        <r>  0.0000  0.0005  0.0004  0.0000  0.0000  0.0000  0.0000  0.0000  0.0000 </r>
        <r>  0.0006  0.0040  0.0004  0.0009  0.0000  0.0000  0.0000  0.0000  0.0000 </r>
        <r>  0.0000  0.0005  0.0000  0.0003  0.0000  0.0000  0.0000  0.0000  0.0000 </r>
        <r>  0.0006  0.0003  0.0000  0.0001  0.0000  0.0000  0.0000  0.0000  0.0000 </r>
        <r>  0.0010  0.0003  0.0000  0.0016  0.0000  0.0000  0.0000  0.0000  0.0000 </r>
        <r>  0.0001  0.0002  0.0010  0.0001  0.0000  0.0000  0.0000  0.0000  0.0000 </r>
        <r>  0.0003  0.0013  0.0000  0.0002  0.0000  0.0000  0.0000  0.0000  0.0000 </r>
        <r>  0.0022  0.0007  0.0002  0.0017  0.0000  0.0000  0.0000  0.0000  0.0000 </r>
        <r>  0.0003  0.0023  0.0004  0.0001  0.0000  0.0000  0.0000  0.0000  0.0000 </r>
        <r>  0.0006  0.0006  0.0028  0.0002  0.0000  0.0000  0.0000  0.0000  0.0000 </r>
        <r>  0.0005  0.0007  0.0000  0.0013  0.0000  0.0000  0.0000  0.0000  0.0000 </r>
        <r>  0.0002  0.0001  0.0003  0.0005  0.0000  0.0000  0.0000  0.0000  0.0000 </r>
        <r>  0.0007  0.0025  0.0000  0.0007  0.0000  0.0000  0.0000  0.0000  0.0000 </r>
        <r>  0.0004  0.0013  0.0004  0.0002  0.0000  0.0000  0.0000  0.0000  0.0000 </r>
        <r>  0.0007  0.0006  0.0001  0.0001  0.0000  0.0000  0.0000  0.0000  0.0000 </r>
        <r>  0.0000  0.0001  0.0016  0.0004  0.0000  0.0000  0.0000  0.0000  0.0000 </r>
        <r>  0.0014  0.0014  0.0007  0.0011  0.0000  0.0000  0.0000  0.0000  0.0000 </r>
        <r>  0.0006  0.0006  0.0002  0.0007  0.0000  0.0000  0.0000  0.0000  0.0000 </r>
        <r>  0.0009  0.0011  0.0005  0.0005  0.0000  0.0000  0.0000  0.0000  0.0000 </r>
        <r>  0.0003  0.0033  0.0001  0.0008  0.0000  0.0000  0.0000  0.0000  0.0000 </r>
        <r>  0.0003  0.0000  0.0021  0.0036  0.0000  0.0000  0.0000  0.0000  0.0000 </r>
        <r>  0.0015  0.0001  0.0009  0.0003  0.0000  0.0000  0.0000  0.0000  0.0000 </r>
        <r>  0.0003  0.0001  0.0006  0.0006  0.0000  0.0000  0.0000  0.0000  0.0000 </r>
        <r>  0.0003  0.0001  0.0004  0.0001  0.0000  0.0000  0.0000  0.0000  0.0000 </r>
        <r>  0.0001  0.0002  0.0001  0.0001  0.0000  0.0000  0.0000  0.0000  0.0000 </r>
        <r>  0.0001  0.0012  0.0003  0.0025  0.0000  0.0000  0.0000  0.0000  0.0000 </r>
        <r>  0.0004  0.0020  0.0006  0.0054  0.0000  0.0000  0.0000  0.0000  0.0000 </r>
        <r>  0.0002  0.0017  0.0004  0.0001  0.0000  0.0000  0.0000  0.0000  0.0000 </r>
        <r>  0.0001  0.0004  0.0008  0.0008  0.0000  0.0000  0.0000  0.0000  0.0000 </r>
        <r>  0.0004  0.0004  0.0001  0.0003  0.0000  0.0000  0.0000  0.0000  0.0000 </r>
        <r>  0.0006  0.0011  0.0000  0.0015  0.0000  0.0000  0.0000  0.0000  0.0000 </r>
        <r>  0.0000  0.0035  0.0037  0.0010  0.0000  0.0000  0.0000  0.0000  0.0000 </r>
        <r>  0.0006  0.0008  0.0000  0.0005  0.0000  0.0000  0.0000  0.0000  0.0000 </r>
        <r>  0.0009  0.0013  0.0004  0.0029  0.0000  0.0000  0.0000  0.0000  0.0000 </r>
        <r>  0.0002  0.0020  0.0012  0.0001  0.0000  0.0000  0.0000  0.0000  0.0000 </r>
        <r>  0.0001  0.0016  0.0003  0.0008  0.0000  0.0000  0.0000  0.0000  0.0000 </r>
        <r>  0.0008  0.0004  0.0013  0.0003  0.0000  0.0000  0.0000  0.0000  0.0000 </r>
        <r>  0.0004  0.0021  0.0000  0.0002  0.0000  0.0000  0.0000  0.0000  0.0000 </r>
        <r>  0.0001  0.0002  0.0003  0.0005  0.0000  0.0000  0.0000  0.0000  0.0000 </r>
        <r>  0.0018  0.0001  0.0002  0.0002  0.0000  0.0000  0.0000  0.0000  0.0000 </r>
        <r>  0.0004  0.0004  0.0019  0.0011  0.0000  0.0000  0.0000  0.0000  0.0000 </r>
        <r>  0.0018  0.0004  0.0004  0.0020  0.0000  0.0000  0.0000  0.0000  0.0000 </r>
        <r>  0.0013  0.0005  0.0006  0.0001  0.0000  0.0000  0.0000  0.0000  0.0000 </r>
        <r>  0.0002  0.0005  0.0004  0.0019  0.0000  0.0000  0.0000  0.0000  0.0000 </r>
        <r>  0.0018  0.0007  0.0001  0.0018  0.0000  0.0000  0.0000  0.0000  0.0000 </r>
        <r>  0.0027  0.0005  0.0001  0.0010  0.0000  0.0000  0.0000  0.0000  0.0000 </r>
        <r>  0.0011  0.0000  0.0017  0.0008  0.0000  0.0000  0.0000  0.0000  0.0000 </r>
        <r>  0.0004  0.0008  0.0008  0.0002  0.0000  0.0000  0.0000  0.0000  0.0000 </r>
        <r>  0.0008  0.0008  0.0009  0.0047  0.0000  0.0000  0.0000  0.0000  0.0000 </r>
        <r>  0.0000  0.0001  0.0001  0.0015  0.0000  0.0000  0.0000  0.0000  0.0000 </r>
        <r>  0.0006  0.0011  0.0006  0.0001  0.0000  0.0000  0.0000  0.0000  0.0000 </r>
        <r>  0.0000  0.0003  0.0014  0.0009  0.0000  0.0000  0.0000  0.0000  0.0000 </r>
        <r>  0.0001  0.0002  0.0004  0.0028  0.0000  0.0000  0.0000  0.0000  0.0000 </r>
        <r>  0.0010  0.0007  0.0008  0.0002  0.0000  0.0000  0.0000  0.0000  0.0000 </r>
        <r>  0.0005  0.0003  0.0002  0.0033  0.0000  0.0000  0.0000  0.0000  0.0000 </r>
        <r>  0.0006  0.0006  0.0020  0.0013  0.0000  0.0000  0.0000  0.0000  0.0000 </r>
        <r>  0.0002  0.0002  0.0005  0.0004  0.0000  0.0000  0.0000  0.0000  0.0000 </r>
       </set>
      </set>
     </set>
    </set>
   </array>
  </projected>
 </calculation>
 <structure name="finalpos" >
  <crystal>
   <varray name="basis" >
    <v>      10.25000000       0.00000000       0.00000000 </v>
    <v>       0.00000000      10.25000000       0.00000000 </v>
    <v>       0.00000000       0.00000000      12.35000000 </v>
   </varray>
   <i name="volume">   1297.52187500 </i>
   <varray name="rec_basis" >
    <v>       0.09756098       0.00000000       0.00000000 </v>
    <v>       0.00000000       0.09756098       0.00000000 </v>
    <v>       0.00000000       0.00000000       0.08097166 </v>
   </varray>
  </crystal>
  <varray name="positions" >
   <v>       0.63470829       0.89419220       0.01178356 </v>
   <v>       0.72612195       0.57472585       0.61156356 </v>
   <v>       0.21762537       0.17020000       0.02394397 </v>
   <v>       0.16176195       0.70425366       0.19997085 </v>
   <v>       0.29166732       0.19663024       0.32938381 </v>
   <v>       0.20628000       0.05174800       0.66136680 </v>
   <v>       0.73922146       0.56245268       0.21581296 </v>
   <v>       0.51160683       0.07862654       0.30369798 </v>
   <v>       0.98643902       0.92625171       0.58731741 </v>
   <v>       0.92992000       0.38884488       0.22966964 </v>
   <v>       0.43789268       0.97176683       0.52643158 </v>
   <v>       0.89500000       0.59305463       0.01521190 </v>
   <v>       0.00540259       0.35982341       0.73678704 </v>
   <v>       0.30030439       0.51984780       0.59782510 </v>
   <v>       0.59945268       0.23824780       0.98686640 </v>
   <v>       0.83691024       0.19312098       0.82974899 </v>
   <v>       0.61647317       0.54017073       0.99143320 </v>
   <v>       0.44507024       0.40542634       0.43549069 </v>
   <v>       0.48355902       0.65519317       0.15686721 </v>
   <v>       0.20859122       0.73821463       0.86425101 </v>
   <v>       0.68758732       0.24750146       0.22043968 </v>
   <v>       0.97345268       0.69620098       0.72699919 </v>
   <v>       0.02550439       0.36683707       0.44929069 </v>
   <v>       0.90634927       0.21649463       0.03831401 </v>
   <v>       0.71192293       0.12774927       0.44943482 </v>
   <v>       0.54469171       0.63552195       0.77555223 </v>
   <v>       0.62532488       0.83585463       0.24549798 </v>
   <v>       0.70552976       0.04853990       0.76914737 </v>
   <v>       0.59931610       0.27985268       0.61390364 </v>
   <v>       0.89663220       0.87327415       0.02724923 </v>
   <v>       0.29687220       0.60696683       0.33952713 </v>
   <v>       0.28086732       0.47684293       0.88604049 </v>
   <v>       0.09521610       0.43136000       0.98442105 </v>
   <v>       0.19719707       0.71551805       0.48619190 </v>
   <v>       0.97883902       0.62237951       0.45629150 </v>
   <v>       0.36737171       0.10808098       0.80329231 </v>
   <v>       0.38250537       0.89010341       0.22274656 </v>
   <v>       0.43828683       0.91607707       0.82866397 </v>
   <v>       0.19966146       0.90602439       0.48649474 </v>
   <v>       0.84728780       0.73712293       0.54336437 </v>
   <v>       0.02660546       0.19144098       0.58914332 </v>
   <v>       0.50340878       0.61546927       0.33490769 </v>
   <v>       0.39266244       0.62072098       0.95129555 </v>
   <v>       0.18545366       0.38339805       0.13748988 </v>
   <v>       0.18323902       0.55909854       0.74382672 </v>
   <v>       0.77158341       0.36925756       0.07567619 </v>
   <v>       0.77031024       0.55735805       0.81580567 </v>
   <v>       0.07505102       0.24458439       0.89931984 </v>
   <v>       0.95099317       0.64819024       0.29156518 </v>
   <v>       0.08039015       0.21581073       0.18464858 </v>
   <v>       0.78516878       0.05287161       0.95902024 </v>
   <v>       0.83931122       0.11974634       0.60617409 </v>
   <v>       0.47795220       0.18495415       0.46414737 </v>
   <v>       0.69359317       0.72282049       0.08776680 </v>
   <v>       0.80014049       0.39878829       0.73388583 </v>
   <v>       0.44943610       0.18091512       0.14375223 </v>
   <v>       0.53654439       0.22795512       0.81051822 </v>
   <v>       0.55730829       0.85206244       0.69117571 </v>
   <v>       0.41353171       0.00680913       0.07839879 </v>
   <v>       0.23982439       0.43454439       0.41251174 </v>
   <v>       0.52649073       0.49247122       0.60787854 </v>
   <v>       0.79520293       0.33477854       0.37680324 </v>
   <v>       0.08819024       0.89774049       0.75761619 </v>
   <v>       0.75068293       0.02948546       0.29040567 </v>
   <v>       0.07416761       0.75165073       0.02621619 </v>
  </varray>
 </structure>
</modeling>
