LPSC                                    
           1
    10.250000    0.000000    0.000000
     0.000000   10.250000    0.000000
     0.000000    0.000000   12.350000
   Li   P    S    Cl
  30   5  25   5
Direct configuration=     1
   0.63470829  0.89419220  0.01178356
   0.72612195  0.57472585  0.61156356
   0.21762537  0.17020000  0.02394397
   0.16176195  0.70425366  0.19997085
   0.29166732  0.19663024  0.32938381
   0.20628000  0.05174800  0.66136680
   0.73922146  0.56245268  0.21581296
   0.51160683  0.07862654  0.30369798
   0.98643902  0.92625171  0.58731741
   0.92992000  0.38884488  0.22966964
   0.43789268  0.97176683  0.52643158
   0.89500000  0.59305463  0.01521190
   0.00540259  0.35982341  0.73678704
   0.30030439  0.51984780  0.59782510
   0.59945268  0.23824780  0.98686640
   0.83691024  0.19312098  0.82974899
   0.61647317  0.54017073  0.99143320
   0.44507024  0.40542634  0.43549069
   0.48355902  0.65519317  0.15686721
   0.20859122  0.73821463  0.86425101
   0.68758732  0.24750146  0.22043968
   0.97345268  0.69620098  0.72699919
   0.02550439  0.36683707  0.44929069
   0.90634927  0.21649463  0.03831401
   0.71192293  0.12774927  0.44943482
   0.54469171  0.63552195  0.77555223
   0.62532488  0.83585463  0.24549798
   0.70552976  0.04853990  0.76914737
   0.59931610  0.27985268  0.61390364
   0.89663220  0.87327415  0.02724923
   0.29687220  0.60696683  0.33952713
   0.28086732  0.47684293  0.88604049
   0.09521610  0.43136000  0.98442105
   0.19719707  0.71551805  0.48619190
   0.97883902  0.62237951  0.45629150
   0.36737171  0.10808098  0.80329231
   0.38250537  0.89010341  0.22274656
   0.43828683  0.91607707  0.82866397
   0.19966146  0.90602439  0.48649474
   0.84728780  0.73712293  0.54336437
   0.02660546  0.19144098  0.58914332
   0.50340878  0.61546927  0.33490769
   0.39266244  0.62072098  0.95129555
   0.18545366  0.38339805  0.13748988
   0.18323902  0.55909854  0.74382672
   0.77158341  0.36925756  0.07567619
   0.77031024  0.55735805  0.81580567
   0.07505102  0.24458439  0.89931984
   0.95099317  0.64819024  0.29156518
   0.08039015  0.21581073  0.18464858
   0.78516878  0.05287161  0.95902024
   0.83931122  0.11974634  0.60617409
   0.47795220  0.18495415  0.46414737
   0.69359317  0.72282049  0.08776680
   0.80014049  0.39878829  0.73388583
   0.44943610  0.18091512  0.14375223
   0.53654439  0.22795512  0.81051822
   0.55730829  0.85206244  0.69117571
   0.41353171  0.00680913  0.07839879
   0.23982439  0.43454439  0.41251174
   0.52649073  0.49247122  0.60787854
   0.79520293  0.33477854  0.37680324
   0.08819024  0.89774049  0.75761619
   0.75068293  0.02948546  0.29040567
   0.07416761  0.75165073  0.02621619
