  65  65   1   0
  0.1996187E+02  0.1025000E-08  0.1025000E-08  0.1235000E-08  0.5000000E-15
  1.000000000000000E-004
  CAR 
 LPSC                                    
     10.16776246    -47.01733649  301      2.56690972      1.00000000
    -47.017  0.0000E+00  0.0000E+00
    -46.827  0.0000E+00  0.0000E+00
    -46.636  0.0000E+00  0.0000E+00
    -46.445  0.0000E+00  0.0000E+00
    -46.255  0.0000E+00  0.0000E+00
    -46.064  0.0000E+00  0.0000E+00
    -45.874  0.0000E+00  0.0000E+00
    -45.683  0.0000E+00  0.0000E+00
    -45.492  0.0000E+00  0.0000E+00
    -45.302  0.0000E+00  0.0000E+00
    -45.111  0.0000E+00  0.0000E+00
    -44.921  0.0000E+00  0.0000E+00
    -44.730  0.0000E+00  0.0000E+00
    -44.539  0.3201E-02  0.6101E-03
    -44.349  0.1890E+02  0.3603E+01
    -44.158  0.6143E+01  0.4774E+01
    -43.967  0.2733E+02  0.9985E+01
    -43.777  0.2196E+02  0.1417E+02
    -43.586  0.4145E+02  0.2207E+02
    -43.396  0.3795E+02  0.2930E+02
    -43.205  0.3125E+02  0.3526E+02
    -43.014  0.6101E+02  0.4689E+02
    -42.824  0.4599E+02  0.5566E+02
    -42.633  0.2277E+02  0.6000E+02
    -42.443  0.1263E-01  0.6000E+02
    -42.252  0.0000E+00  0.6000E+02
    -42.061  0.0000E+00  0.6000E+02
    -41.871  0.0000E+00  0.6000E+02
    -41.680  0.0000E+00  0.6000E+02
    -41.489  0.0000E+00  0.6000E+02
    -41.299  0.0000E+00  0.6000E+02
    -41.108  0.0000E+00  0.6000E+02
    -40.918  0.0000E+00  0.6000E+02
    -40.727  0.0000E+00  0.6000E+02
    -40.536  0.0000E+00  0.6000E+02
    -40.346  0.0000E+00  0.6000E+02
    -40.155  0.0000E+00  0.6000E+02
    -39.965  0.0000E+00  0.6000E+02
    -39.774  0.0000E+00  0.6000E+02
    -39.583  0.0000E+00  0.6000E+02
    -39.393  0.0000E+00  0.6000E+02
    -39.202  0.0000E+00  0.6000E+02
    -39.011  0.0000E+00  0.6000E+02
    -38.821  0.0000E+00  0.6000E+02
    -38.630  0.0000E+00  0.6000E+02
    -38.440  0.0000E+00  0.6000E+02
    -38.249  0.0000E+00  0.6000E+02
    -38.058  0.0000E+00  0.6000E+02
    -37.868  0.0000E+00  0.6000E+02
    -37.677  0.0000E+00  0.6000E+02
    -37.486  0.0000E+00  0.6000E+02
    -37.296  0.0000E+00  0.6000E+02
    -37.105  0.0000E+00  0.6000E+02
    -36.915  0.0000E+00  0.6000E+02
    -36.724  0.0000E+00  0.6000E+02
    -36.533  0.0000E+00  0.6000E+02
    -36.343  0.0000E+00  0.6000E+02
    -36.152  0.0000E+00  0.6000E+02
    -35.962  0.0000E+00  0.6000E+02
    -35.771  0.0000E+00  0.6000E+02
    -35.580  0.0000E+00  0.6000E+02
    -35.390  0.0000E+00  0.6000E+02
    -35.199  0.0000E+00  0.6000E+02
    -35.008  0.0000E+00  0.6000E+02
    -34.818  0.0000E+00  0.6000E+02
    -34.627  0.0000E+00  0.6000E+02
    -34.437  0.0000E+00  0.6000E+02
    -34.246  0.0000E+00  0.6000E+02
    -34.055  0.0000E+00  0.6000E+02
    -33.865  0.0000E+00  0.6000E+02
    -33.674  0.0000E+00  0.6000E+02
    -33.484  0.0000E+00  0.6000E+02
    -33.293  0.0000E+00  0.6000E+02
    -33.102  0.0000E+00  0.6000E+02
    -32.912  0.0000E+00  0.6000E+02
    -32.721  0.0000E+00  0.6000E+02
    -32.530  0.0000E+00  0.6000E+02
    -32.340  0.0000E+00  0.6000E+02
    -32.149  0.0000E+00  0.6000E+02
    -31.959  0.0000E+00  0.6000E+02
    -31.768  0.0000E+00  0.6000E+02
    -31.577  0.0000E+00  0.6000E+02
    -31.387  0.0000E+00  0.6000E+02
    -31.196  0.0000E+00  0.6000E+02
    -31.006  0.0000E+00  0.6000E+02
    -30.815  0.0000E+00  0.6000E+02
    -30.624  0.0000E+00  0.6000E+02
    -30.434  0.0000E+00  0.6000E+02
    -30.243  0.0000E+00  0.6000E+02
    -30.052  0.0000E+00  0.6000E+02
    -29.862  0.0000E+00  0.6000E+02
    -29.671  0.0000E+00  0.6000E+02
    -29.481  0.0000E+00  0.6000E+02
    -29.290  0.0000E+00  0.6000E+02
    -29.099  0.0000E+00  0.6000E+02
    -28.909  0.0000E+00  0.6000E+02
    -28.718  0.0000E+00  0.6000E+02
    -28.527  0.0000E+00  0.6000E+02
    -28.337  0.0000E+00  0.6000E+02
    -28.146  0.0000E+00  0.6000E+02
    -27.956  0.0000E+00  0.6000E+02
    -27.765  0.0000E+00  0.6000E+02
    -27.574  0.0000E+00  0.6000E+02
    -27.384  0.0000E+00  0.6000E+02
    -27.193  0.0000E+00  0.6000E+02
    -27.003  0.0000E+00  0.6000E+02
    -26.812  0.0000E+00  0.6000E+02
    -26.621  0.0000E+00  0.6000E+02
    -26.431  0.0000E+00  0.6000E+02
    -26.240  0.0000E+00  0.6000E+02
    -26.049  0.0000E+00  0.6000E+02
    -25.859  0.0000E+00  0.6000E+02
    -25.668  0.0000E+00  0.6000E+02
    -25.478  0.0000E+00  0.6000E+02
    -25.287  0.0000E+00  0.6000E+02
    -25.096  0.0000E+00  0.6000E+02
    -24.906  0.0000E+00  0.6000E+02
    -24.715  0.0000E+00  0.6000E+02
    -24.525  0.0000E+00  0.6000E+02
    -24.334  0.0000E+00  0.6000E+02
    -24.143  0.0000E+00  0.6000E+02
    -23.953  0.0000E+00  0.6000E+02
    -23.762  0.0000E+00  0.6000E+02
    -23.571  0.0000E+00  0.6000E+02
    -23.381  0.0000E+00  0.6000E+02
    -23.190  0.0000E+00  0.6000E+02
    -23.000  0.0000E+00  0.6000E+02
    -22.809  0.0000E+00  0.6000E+02
    -22.618  0.0000E+00  0.6000E+02
    -22.428  0.0000E+00  0.6000E+02
    -22.237  0.0000E+00  0.6000E+02
    -22.047  0.0000E+00  0.6000E+02
    -21.856  0.0000E+00  0.6000E+02
    -21.665  0.0000E+00  0.6000E+02
    -21.475  0.0000E+00  0.6000E+02
    -21.284  0.0000E+00  0.6000E+02
    -21.093  0.0000E+00  0.6000E+02
    -20.903  0.0000E+00  0.6000E+02
    -20.712  0.0000E+00  0.6000E+02
    -20.522  0.0000E+00  0.6000E+02
    -20.331  0.0000E+00  0.6000E+02
    -20.140  0.0000E+00  0.6000E+02
    -19.950  0.0000E+00  0.6000E+02
    -19.759  0.0000E+00  0.6000E+02
    -19.568  0.0000E+00  0.6000E+02
    -19.378  0.0000E+00  0.6000E+02
    -19.187  0.0000E+00  0.6000E+02
    -18.997  0.0000E+00  0.6000E+02
    -18.806  0.0000E+00  0.6000E+02
    -18.615  0.0000E+00  0.6000E+02
    -18.425  0.0000E+00  0.6000E+02
    -18.234  0.0000E+00  0.6000E+02
    -18.044  0.0000E+00  0.6000E+02
    -17.853  0.0000E+00  0.6000E+02
    -17.662  0.0000E+00  0.6000E+02
    -17.472  0.0000E+00  0.6000E+02
    -17.281  0.0000E+00  0.6000E+02
    -17.090  0.0000E+00  0.6000E+02
    -16.900  0.0000E+00  0.6000E+02
    -16.709  0.0000E+00  0.6000E+02
    -16.519  0.0000E+00  0.6000E+02
    -16.328  0.0000E+00  0.6000E+02
    -16.137  0.0000E+00  0.6000E+02
    -15.947  0.0000E+00  0.6000E+02
    -15.756  0.0000E+00  0.6000E+02
    -15.566  0.0000E+00  0.6000E+02
    -15.375  0.0000E+00  0.6000E+02
    -15.184  0.0000E+00  0.6000E+02
    -14.994  0.0000E+00  0.6000E+02
    -14.803  0.8947E-06  0.6000E+02
    -14.612  0.5924E+01  0.6113E+02
    -14.422  0.1011E+02  0.6306E+02
    -14.231  0.4950E+01  0.6400E+02
    -14.041  0.2467E-06  0.6400E+02
    -13.850  0.1340E-13  0.6400E+02
    -13.659  0.6123E-01  0.6401E+02
    -13.469  0.1041E+02  0.6600E+02
    -13.278  0.7551E-01  0.6601E+02
    -13.088  0.1865E+02  0.6957E+02
    -12.897  0.8295E+01  0.7115E+02
    -12.706  0.4546E+01  0.7201E+02
    -12.516  0.2217E+02  0.7624E+02
    -12.325  0.2621E+02  0.8124E+02
    -12.134  0.4787E+01  0.8215E+02
    -11.944  0.9709E+01  0.8400E+02
    -11.753  0.4119E-03  0.8400E+02
    -11.563  0.1118E+01  0.8421E+02
    -11.372  0.1461E+02  0.8700E+02
    -11.181  0.1554E+02  0.8996E+02
    -10.991  0.2127E+00  0.9000E+02
    -10.800  0.1767E+01  0.9034E+02
    -10.609  0.1921E+02  0.9400E+02
    -10.419  0.5144E-02  0.9400E+02
    -10.228  0.2481E+01  0.9447E+02
    -10.038  0.1267E+02  0.9689E+02
     -9.847  0.1632E+02  0.1000E+03
     -9.656  0.1180E+01  0.1002E+03
     -9.466  0.9315E+01  0.1020E+03
     -9.275  0.1005E+02  0.1039E+03
     -9.085  0.8491E+01  0.1055E+03
     -8.894  0.2328E+02  0.1100E+03
     -8.703  0.9720E+01  0.1118E+03
     -8.513  0.4801E+01  0.1127E+03
     -8.322  0.1707E+02  0.1160E+03
     -8.131  0.3381E-01  0.1160E+03
     -7.941  0.2736E+01  0.1165E+03
     -7.750  0.7756E+01  0.1180E+03
     -7.560  0.8195E+01  0.1196E+03
     -7.369  0.9166E+01  0.1213E+03
     -7.178  0.3625E+01  0.1220E+03
     -6.988  0.1011E+02  0.1239E+03
     -6.797  0.2841E+01  0.1245E+03
     -6.607  0.8034E+01  0.1260E+03
     -6.416  0.1606E-04  0.1260E+03
     -6.225  0.2059E-09  0.1260E+03
     -6.035  0.1176E+01  0.1262E+03
     -5.844  0.9316E+01  0.1280E+03
     -5.653  0.1556E-03  0.1280E+03
     -5.463  0.3234E-02  0.1280E+03
     -5.272  0.1023E+02  0.1300E+03
     -5.082  0.2579E+00  0.1300E+03
     -4.891  0.0000E+00  0.1300E+03
     -4.700  0.0000E+00  0.1300E+03
     -4.510  0.0000E+00  0.1300E+03
     -4.319  0.0000E+00  0.1300E+03
     -4.129  0.0000E+00  0.1300E+03
     -3.938  0.8555E-02  0.1300E+03
     -3.747  0.2054E+02  0.1339E+03
     -3.557  0.9735E+01  0.1358E+03
     -3.366  0.1713E+01  0.1361E+03
     -3.175  0.1396E+02  0.1388E+03
     -2.985  0.2299E+02  0.1431E+03
     -2.794  0.3402E+02  0.1496E+03
     -2.604  0.1455E+02  0.1524E+03
     -2.413  0.2331E+02  0.1568E+03
     -2.222  0.3348E+02  0.1632E+03
     -2.032  0.2666E+02  0.1683E+03
     -1.841  0.3102E+02  0.1742E+03
     -1.650  0.2989E+02  0.1799E+03
     -1.460  0.4399E+02  0.1883E+03
     -1.269  0.3723E+02  0.1954E+03
     -1.079  0.3674E+02  0.2024E+03
     -0.888  0.3566E+02  0.2092E+03
     -0.697  0.1952E+02  0.2129E+03
     -0.507  0.3522E+02  0.2196E+03
     -0.316  0.3657E+02  0.2266E+03
     -0.126  0.2437E+02  0.2312E+03
      0.065  0.3423E+02  0.2378E+03
      0.256  0.4020E+02  0.2454E+03
      0.446  0.4669E+02  0.2543E+03
      0.637  0.3918E+02  0.2618E+03
      0.828  0.3293E+02  0.2681E+03
      1.018  0.2766E+02  0.2734E+03
      1.209  0.2550E+02  0.2782E+03
      1.399  0.2869E+02  0.2837E+03
      1.590  0.1214E+02  0.2860E+03
      1.781  0.1972E+02  0.2898E+03
      1.971  0.2031E+02  0.2936E+03
      2.162  0.2052E+02  0.2975E+03
      2.352  0.1289E+02  0.3000E+03
      2.543  0.1362E-02  0.3000E+03
      2.734  0.2796E-13  0.3000E+03
      2.924  0.7996E-01  0.3000E+03
      3.115  0.1040E+02  0.3020E+03
      3.306  0.1845E-01  0.3020E+03
      3.496  0.1019E+02  0.3039E+03
      3.687  0.2697E+01  0.3045E+03
      3.877  0.8093E+01  0.3060E+03
      4.068  0.8018E+01  0.3075E+03
      4.259  0.2856E+01  0.3081E+03
      4.449  0.2373E+02  0.3126E+03
      4.640  0.8708E+01  0.3143E+03
      4.830  0.2294E+02  0.3186E+03
      5.021  0.1056E+02  0.3206E+03
      5.212  0.1666E+02  0.3238E+03
      5.402  0.3247E+02  0.3300E+03
      5.593  0.1046E+02  0.3320E+03
      5.784  0.1137E+02  0.3342E+03
      5.974  0.1003E+02  0.3361E+03
      6.165  0.2039E+02  0.3400E+03
      6.355  0.2577E+02  0.3449E+03
      6.546  0.2977E+02  0.3506E+03
      6.737  0.2316E+02  0.3550E+03
      6.927  0.1672E+02  0.3582E+03
      7.118  0.2568E+02  0.3630E+03
      7.309  0.1547E+02  0.3660E+03
      7.499  0.2659E+00  0.3660E+03
      7.690  0.1023E+02  0.3680E+03
      7.880  0.3156E-02  0.3680E+03
      8.071  0.0000E+00  0.3680E+03
      8.262  0.0000E+00  0.3680E+03
      8.452  0.0000E+00  0.3680E+03
      8.643  0.0000E+00  0.3680E+03
      8.833  0.0000E+00  0.3680E+03
      9.024  0.0000E+00  0.3680E+03
      9.215  0.0000E+00  0.3680E+03
      9.405  0.0000E+00  0.3680E+03
      9.596  0.0000E+00  0.3680E+03
      9.787  0.0000E+00  0.3680E+03
      9.977  0.0000E+00  0.3680E+03
     10.168  0.0000E+00  0.3680E+03
     10.16776246    -47.01733649  301      2.56690972      1.00000000
    -47.017  0.0000E+00  0.0000E+00  0.0000E+00  0.0000E+00  0.0000E+00  0.0000E+00  0.0000E+00  0.0000E+00  0.0000E+00
    -46.827  0.0000E+00  0.0000E+00  0.0000E+00  0.0000E+00  0.0000E+00  0.0000E+00  0.0000E+00  0.0000E+00  0.0000E+00
    -46.636  0.0000E+00  0.0000E+00  0.0000E+00  0.0000E+00  0.0000E+00  0.0000E+00  0.0000E+00  0.0000E+00  0.0000E+00
    -46.445  0.0000E+00  0.0000E+00  0.0000E+00  0.0000E+00  0.0000E+00  0.0000E+00  0.0000E+00  0.0000E+00  0.0000E+00
    -46.255  0.0000E+00  0.0000E+00  0.0000E+00  0.0000E+00  0.0000E+00  0.0000E+00  0.0000E+00  0.0000E+00  0.0000E+00
    -46.064  0.0000E+00  0.0000E+00  0.0000E+00  0.0000E+00  0.0000E+00  0.0000E+00  0.0000E+00  0.0000E+00  0.0000E+00
    -45.874  0.0000E+00  0.0000E+00  0.0000E+00  0.0000E+00  0.0000E+00  0.0000E+00  0.0000E+00  0.0000E+00  0.0000E+00
    -45.683  0.0000E+00  0.0000E+00  0.0000E+00  0.0000E+00  0.0000E+00  0.0000E+00  0.0000E+00  0.0000E+00  0.0000E+00
    -45.492  0.0000E+00  0.0000E+00  0.0000E+00  0.0000E+00  0.0000E+00  0.0000E+00  0.0000E+00  0.0000E+00  0.0000E+00
    -45.302  0.0000E+00  0.0000E+00  0.0000E+00  0.0000E+00  0.0000E+00  0.0000E+00  0.0000E+00  0.0000E+00  0.0000E+00
    -45.111  0.0000E+00  0.0000E+00  0.0000E+00  0.0000E+00  0.0000E+00  0.0000E+00  0.0000E+00  0.0000E+00  0.0000E+00
    -44.921  0.0000E+00  0.0000E+00  0.0000E+00  0.0000E+00  0.0000E+00  0.0000E+00  0.0000E+00  0.0000E+00  0.0000E+00
    -44.730  0.0000E+00  0.0000E+00  0.0000E+00  0.0000E+00  0.0000E+00  0.0000E+00  0.0000E+00  0.0000E+00  0.0000E+00
    -44.539  0.8098E-14  0.2609E-13  0.2640E-13  0.3396E-12  0.0000E+00  0.0000E+00  0.0000E+00  0.0000E+00  0.0000E+00
    -44.349  0.6434E-10  0.1177E-08  0.4582E-09  0.1434E-08  0.0000E+00  0.0000E+00  0.0000E+00  0.0000E+00  0.0000E+00
    -44.158  0.7691E-04  0.1953E-08  0.9629E-09  0.4796E-07  0.0000E+00  0.0000E+00  0.0000E+00  0.0000E+00  0.0000E+00
    -43.967  0.1238E-03  0.3810E-08  0.5304E-08  0.8088E-07  0.0000E+00  0.0000E+00  0.0000E+00  0.0000E+00  0.0000E+00
    -43.777  0.5008E-04  0.2258E-08  0.8407E-08  0.2297E-08  0.0000E+00  0.0000E+00  0.0000E+00  0.0000E+00  0.0000E+00
    -43.586  0.5572E-04  0.1070E-07  0.1634E-07  0.2883E-08  0.0000E+00  0.0000E+00  0.0000E+00  0.0000E+00  0.0000E+00
    -43.396  0.1225E-01  0.2354E-06  0.5941E-07  0.2449E-07  0.0000E+00  0.0000E+00  0.0000E+00  0.0000E+00  0.0000E+00
    -43.205  0.9722E+00  0.1355E-04  0.5798E-06  0.2932E-05  0.0000E+00  0.0000E+00  0.0000E+00  0.0000E+00  0.0000E+00
    -43.014  0.9389E+01  0.1310E-03  0.5595E-05  0.2832E-04  0.0000E+00  0.0000E+00  0.0000E+00  0.0000E+00  0.0000E+00
    -42.824  0.5174E-03  0.1380E-07  0.6514E-08  0.8332E-08  0.0000E+00  0.0000E+00  0.0000E+00  0.0000E+00  0.0000E+00
    -42.633  0.1048E-05  0.3985E-08  0.4154E-08  0.6252E-08  0.0000E+00  0.0000E+00  0.0000E+00  0.0000E+00  0.0000E+00
    -42.443  0.1041E-12  0.1848E-11  0.1347E-11  0.3712E-11  0.0000E+00  0.0000E+00  0.0000E+00  0.0000E+00  0.0000E+00
    -42.252  0.0000E+00  0.0000E+00  0.0000E+00  0.0000E+00  0.0000E+00  0.0000E+00  0.0000E+00  0.0000E+00  0.0000E+00
    -42.061  0.0000E+00  0.0000E+00  0.0000E+00  0.0000E+00  0.0000E+00  0.0000E+00  0.0000E+00  0.0000E+00  0.0000E+00
    -41.871  0.0000E+00  0.0000E+00  0.0000E+00  0.0000E+00  0.0000E+00  0.0000E+00  0.0000E+00  0.0000E+00  0.0000E+00
    -41.680  0.0000E+00  0.0000E+00  0.0000E+00  0.0000E+00  0.0000E+00  0.0000E+00  0.0000E+00  0.0000E+00  0.0000E+00
    -41.489  0.0000E+00  0.0000E+00  0.0000E+00  0.0000E+00  0.0000E+00  0.0000E+00  0.0000E+00  0.0000E+00  0.0000E+00
    -41.299  0.0000E+00  0.0000E+00  0.0000E+00  0.0000E+00  0.0000E+00  0.0000E+00  0.0000E+00  0.0000E+00  0.0000E+00
    -41.108  0.0000E+00  0.0000E+00  0.0000E+00  0.0000E+00  0.0000E+00  0.0000E+00  0.0000E+00  0.0000E+00  0.0000E+00
    -40.918  0.0000E+00  0.0000E+00  0.0000E+00  0.0000E+00  0.0000E+00  0.0000E+00  0.0000E+00  0.0000E+00  0.0000E+00
    -40.727  0.0000E+00  0.0000E+00  0.0000E+00  0.0000E+00  0.0000E+00  0.0000E+00  0.0000E+00  0.0000E+00  0.0000E+00
    -40.536  0.0000E+00  0.0000E+00  0.0000E+00  0.0000E+00  0.0000E+00  0.0000E+00  0.0000E+00  0.0000E+00  0.0000E+00
    -40.346  0.0000E+00  0.0000E+00  0.0000E+00  0.0000E+00  0.0000E+00  0.0000E+00  0.0000E+00  0.0000E+00  0.0000E+00
    -40.155  0.0000E+00  0.0000E+00  0.0000E+00  0.0000E+00  0.0000E+00  0.0000E+00  0.0000E+00  0.0000E+00  0.0000E+00
    -39.965  0.0000E+00  0.0000E+00  0.0000E+00  0.0000E+00  0.0000E+00  0.0000E+00  0.0000E+00  0.0000E+00  0.0000E+00
    -39.774  0.0000E+00  0.0000E+00  0.0000E+00  0.0000E+00  0.0000E+00  0.0000E+00  0.0000E+00  0.0000E+00  0.0000E+00
    -39.583  0.0000E+00  0.0000E+00  0.0000E+00  0.0000E+00  0.0000E+00  0.0000E+00  0.0000E+00  0.0000E+00  0.0000E+00
    -39.393  0.0000E+00  0.0000E+00  0.0000E+00  0.0000E+00  0.0000E+00  0.0000E+00  0.0000E+00  0.0000E+00  0.0000E+00
    -39.202  0.0000E+00  0.0000E+00  0.0000E+00  0.0000E+00  0.0000E+00  0.0000E+00  0.0000E+00  0.0000E+00  0.0000E+00
    -39.011  0.0000E+00  0.0000E+00  0.0000E+00  0.0000E+00  0.0000E+00  0.0000E+00  0.0000E+00  0.0000E+00  0.0000E+00
    -38.821  0.0000E+00  0.0000E+00  0.0000E+00  0.0000E+00  0.0000E+00  0.0000E+00  0.0000E+00  0.0000E+00  0.0000E+00
    -38.630  0.0000E+00  0.0000E+00  0.0000E+00  0.0000E+00  0.0000E+00  0.0000E+00  0.0000E+00  0.0000E+00  0.0000E+00
    -38.440  0.0000E+00  0.0000E+00  0.0000E+00  0.0000E+00  0.0000E+00  0.0000E+00  0.0000E+00  0.0000E+00  0.0000E+00
    -38.249  0.0000E+00  0.0000E+00  0.0000E+00  0.0000E+00  0.0000E+00  0.0000E+00  0.0000E+00  0.0000E+00  0.0000E+00
    -38.058  0.0000E+00  0.0000E+00  0.0000E+00  0.0000E+00  0.0000E+00  0.0000E+00  0.0000E+00  0.0000E+00  0.0000E+00
    -37.868  0.0000E+00  0.0000E+00  0.0000E+00  0.0000E+00  0.0000E+00  0.0000E+00  0.0000E+00  0.0000E+00  0.0000E+00
    -37.677  0.0000E+00  0.0000E+00  0.0000E+00  0.0000E+00  0.0000E+00  0.0000E+00  0.0000E+00  0.0000E+00  0.0000E+00
    -37.486  0.0000E+00  0.0000E+00  0.0000E+00  0.0000E+00  0.0000E+00  0.0000E+00  0.0000E+00  0.0000E+00  0.0000E+00
    -37.296  0.0000E+00  0.0000E+00  0.0000E+00  0.0000E+00  0.0000E+00  0.0000E+00  0.0000E+00  0.0000E+00  0.0000E+00
    -37.105  0.0000E+00  0.0000E+00  0.0000E+00  0.0000E+00  0.0000E+00  0.0000E+00  0.0000E+00  0.0000E+00  0.0000E+00
    -36.915  0.0000E+00  0.0000E+00  0.0000E+00  0.0000E+00  0.0000E+00  0.0000E+00  0.0000E+00  0.0000E+00  0.0000E+00
    -36.724  0.0000E+00  0.0000E+00  0.0000E+00  0.0000E+00  0.0000E+00  0.0000E+00  0.0000E+00  0.0000E+00  0.0000E+00
    -36.533  0.0000E+00  0.0000E+00  0.0000E+00  0.0000E+00  0.0000E+00  0.0000E+00  0.0000E+00  0.0000E+00  0.0000E+00
    -36.343  0.0000E+00  0.0000E+00  0.0000E+00  0.0000E+00  0.0000E+00  0.0000E+00  0.0000E+00  0.0000E+00  0.0000E+00
    -36.152  0.0000E+00  0.0000E+00  0.0000E+00  0.0000E+00  0.0000E+00  0.0000E+00  0.0000E+00  0.0000E+00  0.0000E+00
    -35.962  0.0000E+00  0.0000E+00  0.0000E+00  0.0000E+00  0.0000E+00  0.0000E+00  0.0000E+00  0.0000E+00  0.0000E+00
    -35.771  0.0000E+00  0.0000E+00  0.0000E+00  0.0000E+00  0.0000E+00  0.0000E+00  0.0000E+00  0.0000E+00  0.0000E+00
    -35.580  0.0000E+00  0.0000E+00  0.0000E+00  0.0000E+00  0.0000E+00  0.0000E+00  0.0000E+00  0.0000E+00  0.0000E+00
    -35.390  0.0000E+00  0.0000E+00  0.0000E+00  0.0000E+00  0.0000E+00  0.0000E+00  0.0000E+00  0.0000E+00  0.0000E+00
    -35.199  0.0000E+00  0.0000E+00  0.0000E+00  0.0000E+00  0.0000E+00  0.0000E+00  0.0000E+00  0.0000E+00  0.0000E+00
    -35.008  0.0000E+00  0.0000E+00  0.0000E+00  0.0000E+00  0.0000E+00  0.0000E+00  0.0000E+00  0.0000E+00  0.0000E+00
    -34.818  0.0000E+00  0.0000E+00  0.0000E+00  0.0000E+00  0.0000E+00  0.0000E+00  0.0000E+00  0.0000E+00  0.0000E+00
    -34.627  0.0000E+00  0.0000E+00  0.0000E+00  0.0000E+00  0.0000E+00  0.0000E+00  0.0000E+00  0.0000E+00  0.0000E+00
    -34.437  0.0000E+00  0.0000E+00  0.0000E+00  0.0000E+00  0.0000E+00  0.0000E+00  0.0000E+00  0.0000E+00  0.0000E+00
    -34.246  0.0000E+00  0.0000E+00  0.0000E+00  0.0000E+00  0.0000E+00  0.0000E+00  0.0000E+00  0.0000E+00  0.0000E+00
    -34.055  0.0000E+00  0.0000E+00  0.0000E+00  0.0000E+00  0.0000E+00  0.0000E+00  0.0000E+00  0.0000E+00  0.0000E+00
    -33.865  0.0000E+00  0.0000E+00  0.0000E+00  0.0000E+00  0.0000E+00  0.0000E+00  0.0000E+00  0.0000E+00  0.0000E+00
    -33.674  0.0000E+00  0.0000E+00  0.0000E+00  0.0000E+00  0.0000E+00  0.0000E+00  0.0000E+00  0.0000E+00  0.0000E+00
    -33.484  0.0000E+00  0.0000E+00  0.0000E+00  0.0000E+00  0.0000E+00  0.0000E+00  0.0000E+00  0.0000E+00  0.0000E+00
    -33.293  0.0000E+00  0.0000E+00  0.0000E+00  0.0000E+00  0.0000E+00  0.0000E+00  0.0000E+00  0.0000E+00  0.0000E+00
    -33.102  0.0000E+00  0.0000E+00  0.0000E+00  0.0000E+00  0.0000E+00  0.0000E+00  0.0000E+00  0.0000E+00  0.0000E+00
    -32.912  0.0000E+00  0.0000E+00  0.0000E+00  0.0000E+00  0.0000E+00  0.0000E+00  0.0000E+00  0.0000E+00  0.0000E+00
    -32.721  0.0000E+00  0.0000E+00  0.0000E+00  0.0000E+00  0.0000E+00  0.0000E+00  0.0000E+00  0.0000E+00  0.0000E+00
    -32.530  0.0000E+00  0.0000E+00  0.0000E+00  0.0000E+00  0.0000E+00  0.0000E+00  0.0000E+00  0.0000E+00  0.0000E+00
    -32.340  0.0000E+00  0.0000E+00  0.0000E+00  0.0000E+00  0.0000E+00  0.0000E+00  0.0000E+00  0.0000E+00  0.0000E+00
    -32.149  0.0000E+00  0.0000E+00  0.0000E+00  0.0000E+00  0.0000E+00  0.0000E+00  0.0000E+00  0.0000E+00  0.0000E+00
    -31.959  0.0000E+00  0.0000E+00  0.0000E+00  0.0000E+00  0.0000E+00  0.0000E+00  0.0000E+00  0.0000E+00  0.0000E+00
    -31.768  0.0000E+00  0.0000E+00  0.0000E+00  0.0000E+00  0.0000E+00  0.0000E+00  0.0000E+00  0.0000E+00  0.0000E+00
    -31.577  0.0000E+00  0.0000E+00  0.0000E+00  0.0000E+00  0.0000E+00  0.0000E+00  0.0000E+00  0.0000E+00  0.0000E+00
    -31.387  0.0000E+00  0.0000E+00  0.0000E+00  0.0000E+00  0.0000E+00  0.0000E+00  0.0000E+00  0.0000E+00  0.0000E+00
    -31.196  0.0000E+00  0.0000E+00  0.0000E+00  0.0000E+00  0.0000E+00  0.0000E+00  0.0000E+00  0.0000E+00  0.0000E+00
    -31.006  0.0000E+00  0.0000E+00  0.0000E+00  0.0000E+00  0.0000E+00  0.0000E+00  0.0000E+00  0.0000E+00  0.0000E+00
    -30.815  0.0000E+00  0.0000E+00  0.0000E+00  0.0000E+00  0.0000E+00  0.0000E+00  0.0000E+00  0.0000E+00  0.0000E+00
    -30.624  0.0000E+00  0.0000E+00  0.0000E+00  0.0000E+00  0.0000E+00  0.0000E+00  0.0000E+00  0.0000E+00  0.0000E+00
    -30.434  0.0000E+00  0.0000E+00  0.0000E+00  0.0000E+00  0.0000E+00  0.0000E+00  0.0000E+00  0.0000E+00  0.0000E+00
    -30.243  0.0000E+00  0.0000E+00  0.0000E+00  0.0000E+00  0.0000E+00  0.0000E+00  0.0000E+00  0.0000E+00  0.0000E+00
    -30.052  0.0000E+00  0.0000E+00  0.0000E+00  0.0000E+00  0.0000E+00  0.0000E+00  0.0000E+00  0.0000E+00  0.0000E+00
    -29.862  0.0000E+00  0.0000E+00  0.0000E+00  0.0000E+00  0.0000E+00  0.0000E+00  0.0000E+00  0.0000E+00  0.0000E+00
    -29.671  0.0000E+00  0.0000E+00  0.0000E+00  0.0000E+00  0.0000E+00  0.0000E+00  0.0000E+00  0.0000E+00  0.0000E+00
    -29.481  0.0000E+00  0.0000E+00  0.0000E+00  0.0000E+00  0.0000E+00  0.0000E+00  0.0000E+00  0.0000E+00  0.0000E+00
    -29.290  0.0000E+00  0.0000E+00  0.0000E+00  0.0000E+00  0.0000E+00  0.0000E+00  0.0000E+00  0.0000E+00  0.0000E+00
    -29.099  0.0000E+00  0.0000E+00  0.0000E+00  0.0000E+00  0.0000E+00  0.0000E+00  0.0000E+00  0.0000E+00  0.0000E+00
    -28.909  0.0000E+00  0.0000E+00  0.0000E+00  0.0000E+00  0.0000E+00  0.0000E+00  0.0000E+00  0.0000E+00  0.0000E+00
    -28.718  0.0000E+00  0.0000E+00  0.0000E+00  0.0000E+00  0.0000E+00  0.0000E+00  0.0000E+00  0.0000E+00  0.0000E+00
    -28.527  0.0000E+00  0.0000E+00  0.0000E+00  0.0000E+00  0.0000E+00  0.0000E+00  0.0000E+00  0.0000E+00  0.0000E+00
    -28.337  0.0000E+00  0.0000E+00  0.0000E+00  0.0000E+00  0.0000E+00  0.0000E+00  0.0000E+00  0.0000E+00  0.0000E+00
    -28.146  0.0000E+00  0.0000E+00  0.0000E+00  0.0000E+00  0.0000E+00  0.0000E+00  0.0000E+00  0.0000E+00  0.0000E+00
    -27.956  0.0000E+00  0.0000E+00  0.0000E+00  0.0000E+00  0.0000E+00  0.0000E+00  0.0000E+00  0.0000E+00  0.0000E+00
    -27.765  0.0000E+00  0.0000E+00  0.0000E+00  0.0000E+00  0.0000E+00  0.0000E+00  0.0000E+00  0.0000E+00  0.0000E+00
    -27.574  0.0000E+00  0.0000E+00  0.0000E+00  0.0000E+00  0.0000E+00  0.0000E+00  0.0000E+00  0.0000E+00  0.0000E+00
    -27.384  0.0000E+00  0.0000E+00  0.0000E+00  0.0000E+00  0.0000E+00  0.0000E+00  0.0000E+00  0.0000E+00  0.0000E+00
    -27.193  0.0000E+00  0.0000E+00  0.0000E+00  0.0000E+00  0.0000E+00  0.0000E+00  0.0000E+00  0.0000E+00  0.0000E+00
    -27.003  0.0000E+00  0.0000E+00  0.0000E+00  0.0000E+00  0.0000E+00  0.0000E+00  0.0000E+00  0.0000E+00  0.0000E+00
    -26.812  0.0000E+00  0.0000E+00  0.0000E+00  0.0000E+00  0.0000E+00  0.0000E+00  0.0000E+00  0.0000E+00  0.0000E+00
    -26.621  0.0000E+00  0.0000E+00  0.0000E+00  0.0000E+00  0.0000E+00  0.0000E+00  0.0000E+00  0.0000E+00  0.0000E+00
    -26.431  0.0000E+00  0.0000E+00  0.0000E+00  0.0000E+00  0.0000E+00  0.0000E+00  0.0000E+00  0.0000E+00  0.0000E+00
    -26.240  0.0000E+00  0.0000E+00  0.0000E+00  0.0000E+00  0.0000E+00  0.0000E+00  0.0000E+00  0.0000E+00  0.0000E+00
    -26.049  0.0000E+00  0.0000E+00  0.0000E+00  0.0000E+00  0.0000E+00  0.0000E+00  0.0000E+00  0.0000E+00  0.0000E+00
    -25.859  0.0000E+00  0.0000E+00  0.0000E+00  0.0000E+00  0.0000E+00  0.0000E+00  0.0000E+00  0.0000E+00  0.0000E+00
    -25.668  0.0000E+00  0.0000E+00  0.0000E+00  0.0000E+00  0.0000E+00  0.0000E+00  0.0000E+00  0.0000E+00  0.0000E+00
    -25.478  0.0000E+00  0.0000E+00  0.0000E+00  0.0000E+00  0.0000E+00  0.0000E+00  0.0000E+00  0.0000E+00  0.0000E+00
    -25.287  0.0000E+00  0.0000E+00  0.0000E+00  0.0000E+00  0.0000E+00  0.0000E+00  0.0000E+00  0.0000E+00  0.0000E+00
    -25.096  0.0000E+00  0.0000E+00  0.0000E+00  0.0000E+00  0.0000E+00  0.0000E+00  0.0000E+00  0.0000E+00  0.0000E+00
    -24.906  0.0000E+00  0.0000E+00  0.0000E+00  0.0000E+00  0.0000E+00  0.0000E+00  0.0000E+00  0.0000E+00  0.0000E+00
    -24.715  0.0000E+00  0.0000E+00  0.0000E+00  0.0000E+00  0.0000E+00  0.0000E+00  0.0000E+00  0.0000E+00  0.0000E+00
    -24.525  0.0000E+00  0.0000E+00  0.0000E+00  0.0000E+00  0.0000E+00  0.0000E+00  0.0000E+00  0.0000E+00  0.0000E+00
    -24.334  0.0000E+00  0.0000E+00  0.0000E+00  0.0000E+00  0.0000E+00  0.0000E+00  0.0000E+00  0.0000E+00  0.0000E+00
    -24.143  0.0000E+00  0.0000E+00  0.0000E+00  0.0000E+00  0.0000E+00  0.0000E+00  0.0000E+00  0.0000E+00  0.0000E+00
    -23.953  0.0000E+00  0.0000E+00  0.0000E+00  0.0000E+00  0.0000E+00  0.0000E+00  0.0000E+00  0.0000E+00  0.0000E+00
    -23.762  0.0000E+00  0.0000E+00  0.0000E+00  0.0000E+00  0.0000E+00  0.0000E+00  0.0000E+00  0.0000E+00  0.0000E+00
    -23.571  0.0000E+00  0.0000E+00  0.0000E+00  0.0000E+00  0.0000E+00  0.0000E+00  0.0000E+00  0.0000E+00  0.0000E+00
    -23.381  0.0000E+00  0.0000E+00  0.0000E+00  0.0000E+00  0.0000E+00  0.0000E+00  0.0000E+00  0.0000E+00  0.0000E+00
    -23.190  0.0000E+00  0.0000E+00  0.0000E+00  0.0000E+00  0.0000E+00  0.0000E+00  0.0000E+00  0.0000E+00  0.0000E+00
    -23.000  0.0000E+00  0.0000E+00  0.0000E+00  0.0000E+00  0.0000E+00  0.0000E+00  0.0000E+00  0.0000E+00  0.0000E+00
    -22.809  0.0000E+00  0.0000E+00  0.0000E+00  0.0000E+00  0.0000E+00  0.0000E+00  0.0000E+00  0.0000E+00  0.0000E+00
    -22.618  0.0000E+00  0.0000E+00  0.0000E+00  0.0000E+00  0.0000E+00  0.0000E+00  0.0000E+00  0.0000E+00  0.0000E+00
    -22.428  0.0000E+00  0.0000E+00  0.0000E+00  0.0000E+00  0.0000E+00  0.0000E+00  0.0000E+00  0.0000E+00  0.0000E+00
    -22.237  0.0000E+00  0.0000E+00  0.0000E+00  0.0000E+00  0.0000E+00  0.0000E+00  0.0000E+00  0.0000E+00  0.0000E+00
    -22.047  0.0000E+00  0.0000E+00  0.0000E+00  0.0000E+00  0.0000E+00  0.0000E+00  0.0000E+00  0.0000E+00  0.0000E+00
    -21.856  0.0000E+00  0.0000E+00  0.0000E+00  0.0000E+00  0.0000E+00  0.0000E+00  0.0000E+00  0.0000E+00  0.0000E+00
    -21.665  0.0000E+00  0.0000E+00  0.0000E+00  0.0000E+00  0.0000E+00  0.0000E+00  0.0000E+00  0.0000E+00  0.0000E+00
    -21.475  0.0000E+00  0.0000E+00  0.0000E+00  0.0000E+00  0.0000E+00  0.0000E+00  0.0000E+00  0.0000E+00  0.0000E+00
    -21.284  0.0000E+00  0.0000E+00  0.0000E+00  0.0000E+00  0.0000E+00  0.0000E+00  0.0000E+00  0.0000E+00  0.0000E+00
    -21.093  0.0000E+00  0.0000E+00  0.0000E+00  0.0000E+00  0.0000E+00  0.0000E+00  0.0000E+00  0.0000E+00  0.0000E+00
    -20.903  0.0000E+00  0.0000E+00  0.0000E+00  0.0000E+00  0.0000E+00  0.0000E+00  0.0000E+00  0.0000E+00  0.0000E+00
    -20.712  0.0000E+00  0.0000E+00  0.0000E+00  0.0000E+00  0.0000E+00  0.0000E+00  0.0000E+00  0.0000E+00  0.0000E+00
    -20.522  0.0000E+00  0.0000E+00  0.0000E+00  0.0000E+00  0.0000E+00  0.0000E+00  0.0000E+00  0.0000E+00  0.0000E+00
    -20.331  0.0000E+00  0.0000E+00  0.0000E+00  0.0000E+00  0.0000E+00  0.0000E+00  0.0000E+00  0.0000E+00  0.0000E+00
    -20.140  0.0000E+00  0.0000E+00  0.0000E+00  0.0000E+00  0.0000E+00  0.0000E+00  0.0000E+00  0.0000E+00  0.0000E+00
    -19.950  0.0000E+00  0.0000E+00  0.0000E+00  0.0000E+00  0.0000E+00  0.0000E+00  0.0000E+00  0.0000E+00  0.0000E+00
    -19.759  0.0000E+00  0.0000E+00  0.0000E+00  0.0000E+00  0.0000E+00  0.0000E+00  0.0000E+00  0.0000E+00  0.0000E+00
    -19.568  0.0000E+00  0.0000E+00  0.0000E+00  0.0000E+00  0.0000E+00  0.0000E+00  0.0000E+00  0.0000E+00  0.0000E+00
    -19.378  0.0000E+00  0.0000E+00  0.0000E+00  0.0000E+00  0.0000E+00  0.0000E+00  0.0000E+00  0.0000E+00  0.0000E+00
    -19.187  0.0000E+00  0.0000E+00  0.0000E+00  0.0000E+00  0.0000E+00  0.0000E+00  0.0000E+00  0.0000E+00  0.0000E+00
    -18.997  0.0000E+00  0.0000E+00  0.0000E+00  0.0000E+00  0.0000E+00  0.0000E+00  0.0000E+00  0.0000E+00  0.0000E+00
    -18.806  0.0000E+00  0.0000E+00  0.0000E+00  0.0000E+00  0.0000E+00  0.0000E+00  0.0000E+00  0.0000E+00  0.0000E+00
    -18.615  0.0000E+00  0.0000E+00  0.0000E+00  0.0000E+00  0.0000E+00  0.0000E+00  0.0000E+00  0.0000E+00  0.0000E+00
    -18.425  0.0000E+00  0.0000E+00  0.0000E+00  0.0000E+00  0.0000E+00  0.0000E+00  0.0000E+00  0.0000E+00  0.0000E+00
    -18.234  0.0000E+00  0.0000E+00  0.0000E+00  0.0000E+00  0.0000E+00  0.0000E+00  0.0000E+00  0.0000E+00  0.0000E+00
    -18.044  0.0000E+00  0.0000E+00  0.0000E+00  0.0000E+00  0.0000E+00  0.0000E+00  0.0000E+00  0.0000E+00  0.0000E+00
    -17.853  0.0000E+00  0.0000E+00  0.0000E+00  0.0000E+00  0.0000E+00  0.0000E+00  0.0000E+00  0.0000E+00  0.0000E+00
    -17.662  0.0000E+00  0.0000E+00  0.0000E+00  0.0000E+00  0.0000E+00  0.0000E+00  0.0000E+00  0.0000E+00  0.0000E+00
    -17.472  0.0000E+00  0.0000E+00  0.0000E+00  0.0000E+00  0.0000E+00  0.0000E+00  0.0000E+00  0.0000E+00  0.0000E+00
    -17.281  0.0000E+00  0.0000E+00  0.0000E+00  0.0000E+00  0.0000E+00  0.0000E+00  0.0000E+00  0.0000E+00  0.0000E+00