       N       E                     dE             d eps       ncg     rms          rms(c)
RMM:   1    -0.108601186017E+04   -0.10860E+04   -0.14688E+05   184   0.131E+03
RMM:   2     0.761953877947E+03    0.18480E+04   -0.23076E+04   184   0.254E+02
RMM:   3     0.253067892766E+03   -0.50889E+03   -0.73825E+03   184   0.135E+02
RMM:   4    -0.475305244489E+01   -0.25782E+03   -0.26151E+03   184   0.985E+01
RMM:   5    -0.118375815884E+03   -0.11362E+03   -0.10262E+03   184   0.640E+01
RMM:   6    -0.165431342728E+03   -0.47056E+02   -0.43712E+02   184   0.472E+01
RMM:   7    -0.188572603617E+03   -0.23141E+02   -0.22065E+02   184   0.362E+01
RMM:   8    -0.202197449103E+03   -0.13625E+02   -0.12812E+02   184   0.310E+01
RMM:   9    -0.237676554572E+03   -0.35479E+02   -0.35214E+02   668   0.270E+01
RMM:  10    -0.255532446198E+03   -0.17856E+02   -0.17635E+02   666   0.174E+01
RMM:  11    -0.259411296210E+03   -0.38789E+01   -0.39797E+01   642   0.105E+01
RMM:  12    -0.261710679014E+03   -0.22994E+01   -0.23006E+01   637   0.789E+00    0.411E+01
RMM:  13    -0.251837932000E+03    0.98727E+01   -0.25600E+01   495   0.786E+00    0.265E+01
RMM:  14    -0.250738978569E+03    0.10990E+01   -0.20350E+01   523   0.691E+00    0.712E+00
RMM:  15    -0.250862429239E+03   -0.12345E+00   -0.43616E+00   587   0.399E+00    0.167E+00
RMM:  16    -0.250959641501E+03   -0.97212E-01   -0.15411E+00   632   0.266E+00    0.133E+00
RMM:  17    -0.251056536943E+03   -0.96895E-01   -0.91036E-01   610   0.202E+00    0.487E-01
RMM:  18    -0.251122246155E+03   -0.65709E-01   -0.65446E-01   608   0.158E+00    0.207E-01
RMM:  19    -0.251174589479E+03   -0.52343E-01   -0.52542E-01   623   0.126E+00    0.267E-01
RMM:  20    -0.251194960488E+03   -0.20371E-01   -0.20909E-01   635   0.936E-01    0.354E-01
RMM:  21    -0.251209769195E+03   -0.14809E-01   -0.16532E-01   619   0.773E-01    0.506E-01
RMM:  22    -0.251217288328E+03   -0.75191E-02   -0.95157E-02   616   0.631E-01    0.545E-01
RMM:  23    -0.251221761514E+03   -0.44732E-02   -0.67170E-02   618   0.523E-01    0.653E-01
RMM:  24    -0.251219106532E+03    0.26550E-02   -0.71698E-02   606   0.523E-01    0.125E+00
RMM:  25    -0.251217402703E+03    0.17038E-02   -0.49689E-02   638   0.443E-01    0.157E+00
RMM:  26    -0.251222190247E+03   -0.47875E-02   -0.27045E-02   605   0.367E-01    0.133E+00
RMM:  27    -0.251231064614E+03   -0.88744E-02   -0.47138E-02   496   0.431E-01    0.543E-01
RMM:  28    -0.251233599724E+03   -0.25351E-02   -0.17026E-02   628   0.246E-01    0.371E-01
RMM:  29    -0.251235125453E+03   -0.15257E-02   -0.74726E-03   626   0.178E-01    0.236E-01
RMM:  30    -0.251236132550E+03   -0.10071E-02   -0.49071E-03   613   0.146E-01    0.127E-01
RMM:  31    -0.251236140870E+03   -0.83203E-05   -0.53770E-03   553   0.161E-01    0.210E-01
RMM:  32    -0.251236228764E+03   -0.87893E-04   -0.19953E-03   638   0.914E-02    0.210E-01
RMM:  33    -0.251236570524E+03   -0.34176E-03   -0.17782E-03   552   0.837E-02    0.122E-01
RMM:  34    -0.251236750222E+03   -0.17970E-03   -0.14655E-03   559   0.712E-02    0.620E-02
RMM:  35    -0.251236897290E+03   -0.14707E-03   -0.10567E-03   622   0.598E-02    0.213E-02
RMM:  36    -0.251236990239E+03   -0.92949E-04   -0.70208E-04   631   0.486E-02    0.467E-03
RMM:  37    -0.251237038370E+03   -0.48131E-04   -0.46927E-04   578   0.391E-02    0.906E-03
RMM:  38    -0.251237067056E+03   -0.28686E-04   -0.30273E-04   569   0.321E-02    0.102E-02
RMM:  39    -0.251237079698E+03   -0.12642E-04   -0.21320E-04   569   0.268E-02    0.265E-03
RMM:  40    -0.251237094533E+03   -0.14835E-04   -0.16458E-04   503   0.224E-02    0.263E-03
RMM:  41    -0.251237104434E+03   -0.99012E-05   -0.11182E-04   452   0.189E-02    0.248E-03
RMM:  42    -0.251237112484E+03   -0.80501E-05   -0.84358E-05   447   0.165E-02    0.322E-03
RMM:  43    -0.251237118666E+03   -0.61819E-05   -0.62256E-05   425   0.146E-02    0.405E-03
RMM:  44    -0.251237122885E+03   -0.42183E-05   -0.46084E-05   429   0.130E-02    0.451E-03
RMM:  45    -0.251237125944E+03   -0.30597E-05   -0.34121E-05   393   0.117E-02    0.487E-03
RMM:  46    -0.251237127808E+03   -0.18630E-05   -0.24289E-05   362   0.107E-02    0.485E-03
RMM:  47    -0.251237129093E+03   -0.12859E-05   -0.17107E-05   329   0.991E-03    0.487E-03
RMM:  48    -0.251237130339E+03   -0.12455E-05   -0.14899E-05   367   0.939E-03    0.516E-03
RMM:  49    -0.251237131387E+03   -0.10483E-05   -0.11171E-05   347   0.886E-03    0.542E-03
RMM:  50    -0.251237132250E+03   -0.86288E-06   -0.76856E-06   321   0.849E-03
   1 F= -.25123713E+03 E0= -.25123713E+03  d E =-.251237E+03
