 vasp.5.4.4.18Apr17-6-g9f103f2a35 (build Jan 22 2020 12:49:05) complex          
  
 executed on Bebop BDW IPS19.0.5  date 2022.09.29  10:08:00
 running on   64 total cores
 distrk:  each k-point on   64 cores,    1 groups
 distr:  one band on NCORES_PER_BAND=   8 cores,    8 groups


--------------------------------------------------------------------------------------------------------


 INCAR:
 POTCAR:    PAW_PBE Li_sv 10Sep2004               
 POTCAR:    PAW_PBE P 06Sep2000                   
 POTCAR:    PAW_PBE S 06Sep2000                   
 POTCAR:    PAW_PBE Cl 06Sep2000                  
 POTCAR:    PAW_PBE Li_sv 10Sep2004               
   VRHFIN =Li: 1s2s2p                                                           
   LEXCH  = PE                                                                  
   EATOM  =   202.7858 eV,   14.9043 Ry                                         
                                                                                
   TITEL  = PAW_PBE Li_sv 10Sep2004                                             
   LULTRA =        F    use ultrasoft PP ?                                      
   IUNSCR =        0    unscreen: 0-lin 1-nonlin 2-no                           
   RPACOR =    0.000    partial core radius                                     
   POMASS =    7.010; ZVAL   =    3.000    mass and valenz                      
   RCORE  =    1.700    outmost cutoff radius                                   
   RWIGS  =    2.050; RWIGS  =    1.085    wigner-seitz radius (au A)           
   ENMAX  =  499.034; ENMIN  =  374.276 eV                                      
   ICORE  =        2    local potential                                         
   LCOR   =        T    correct aug charges                                     
   LPAW   =        T    paw PP                                                  
   EAUG   =  628.945                                                            
   RMAX   =    1.732    core radius for proj-oper                               
   RAUG   =    1.300    factor for augmentation sphere                          
   RDEP   =    1.728    radius for radial grids                                 
   RDEPT  =    1.329    core radius for aug-charge                              
                                                                                
   Atomic configuration                                                         
    4 entries                                                                   
     n  l   j            E        occ.                                          
     1  0  0.50       -51.8549   2.0000                                         
     2  0  0.50        -2.8742   1.0000                                         
     2  1  0.50        -1.3606   0.0000                                         
     3  2  1.50        -1.3606   0.0000                                         
   Description                                                                  
     l       E           TYP  RCUT    TYP  RCUT                                 
     0    -51.8548813     23  1.400                                             
     0     -2.8742052     23  1.700                                             
     1     -1.3605826     23  1.400                                             
     2     -1.3605826     23  1.400                                             
  local pseudopotential read in
  atomic valenz-charges read in
  non local Contribution for L=           0  read in
    real space projection operators read in
  non local Contribution for L=           0  read in
    real space projection operators read in
  non local Contribution for L=           1  read in
    real space projection operators read in
    PAW grid and wavefunctions read in
 
   number of l-projection  operators is LMAX  =           3
   number of lm-projection operators is LMMAX =           5
 
 POTCAR:    PAW_PBE P 06Sep2000                   
   VRHFIN =P : s2p3                                                             
   LEXCH  = PE                                                                  
   EATOM  =   176.0430 eV,   12.9388 Ry                                         
                                                                                
   TITEL  = PAW_PBE P 06Sep2000                                                 
   LULTRA =        F    use ultrasoft PP ?                                      
   IUNSCR =        1    unscreen: 0-lin 1-nonlin 2-no                           
   RPACOR =    1.500    partial core radius                                     
   POMASS =   30.974; ZVAL   =    5.000    mass and valenz                      
   RCORE  =    1.900    outmost cutoff radius                                   
   RWIGS  =    2.330; RWIGS  =    1.233    wigner-seitz radius (au A)           
   ENMAX  =  255.040; ENMIN  =  191.280 eV                                      
   ICORE  =        2    local potential                                         
   LCOR   =        T    correct aug charges                                     
   LPAW   =        T    paw PP                                                  
   EAUG   =  342.924                                                            
   DEXC   =    0.000                                                            
   RMAX   =    1.935    core radius for proj-oper                               
   RAUG   =    1.300    factor for augmentation sphere                          
   RDEP   =    1.931    radius for radial grids                                 
   RDEPT  =    1.794    core radius for aug-charge                              
                                                                                
   Atomic configuration                                                         
    6 entries                                                                   
     n  l   j            E        occ.                                          
     1  0  0.50     -2084.0982   2.0000                                         
     2  0  0.50      -173.9859   2.0000                                         
     2  1  1.50      -124.4865   6.0000                                         
     3  0  0.50       -13.9692   2.0000                                         
     3  1  0.50        -5.5067   3.0000                                         
     3  2  1.50        -5.4423   0.0000                                         
   Description                                                                  
     l       E           TYP  RCUT    TYP  RCUT                                 
     0    -13.9691527     23  1.900                                             
     0    -11.7794650     23  1.900                                             
     1     -5.5066937     23  1.900                                             
     1     -0.2556953     23  1.900                                             
     2     -5.4423304     23  1.900                                             
  local pseudopotential read in
  partial core-charges read in
  partial kinetic energy density read in
  atomic valenz-charges read in
  non local Contribution for L=           0  read in
    real space projection operators read in
  non local Contribution for L=           0  read in
    real space projection operators read in
  non local Contribution for L=           1  read in
    real space projection operators read in
  non local Contribution for L=           1  read in
    real space projection operators read in
    PAW grid and wavefunctions read in
 
   number of l-projection  operators is LMAX  =           4
   number of lm-projection operators is LMMAX =           8
 
 POTCAR:    PAW_PBE S 06Sep2000                   
   VRHFIN =S : s2p4                                                             
   LEXCH  = PE                                                                  
   EATOM  =   276.8230 eV,   20.3459 Ry                                         
                                                                                
   TITEL  = PAW_PBE S 06Sep2000                                                 
   LULTRA =        F    use ultrasoft PP ?                                      
   IUNSCR =        1    unscreen: 0-lin 1-nonlin 2-no                           
   RPACOR =    1.500    partial core radius                                     
   POMASS =   32.066; ZVAL   =    6.000    mass and valenz                      
   RCORE  =    1.900    outmost cutoff radius                                   
   RWIGS  =    2.200; RWIGS  =    1.164    wigner-seitz radius (au A)           
   ENMAX  =  258.689; ENMIN  =  194.016 eV                                      
   ICORE  =        2    local potential                                         
   LCOR   =        T    correct aug charges                                     
   LPAW   =        T    paw PP                                                  
   EAUG   =  335.092                                                            
   DEXC   =    0.000                                                            
   RMAX   =    1.942    core radius for proj-oper                               
   RAUG   =    1.300    factor for augmentation sphere                          
   RDEP   =    1.954    radius for radial grids                                 
   RDEPT  =    1.744    core radius for aug-charge                              
                                                                                
   Atomic configuration                                                         
    6 entries                                                                   
     n  l   j            E        occ.                                          
     1  0  0.50     -2405.8406   2.0000                                         
     2  0  0.50      -211.7007   2.0000                                         
     2  1  1.50      -156.4958   6.0000                                         
     3  0  0.50       -17.2562   2.0000                                         
     3  1  0.50        -7.0085   4.0000                                         
     3  2  1.50        -6.8029   0.0000                                         
   Description                                                                  
     l       E           TYP  RCUT    TYP  RCUT                                 
     0    -17.2561641     23  1.900                                             
     0    -15.8743224     23  1.900                                             
     1     -7.0085400     23  1.900                                             
     1     -2.7779785     23  1.900                                             
     2     -6.8029130     23  1.900                                             
  local pseudopotential read in
  partial core-charges read in
  partial kinetic energy density read in
  atomic valenz-charges read in
  non local Contribution for L=           0  read in
    real space projection operators read in
  non local Contribution for L=           0  read in
    real space projection operators read in
  non local Contribution for L=           1  read in
    real space projection operators read in
  non local Contribution for L=           1  read in
    real space projection operators read in
    PAW grid and wavefunctions read in
 
   number of l-projection  operators is LMAX  =           4
   number of lm-projection operators is LMMAX =           8
 
 POTCAR:    PAW_PBE Cl 06Sep2000                  
   VRHFIN =Cl: s2p5                                                             
   LEXCH  = PE                                                                  
   EATOM  =   409.7259 eV,   30.1140 Ry                                         
                                                                                
   TITEL  = PAW_PBE Cl 06Sep2000                                                
   LULTRA =        F    use ultrasoft PP ?                                      
   IUNSCR =        1    unscreen: 0-lin 1-nonlin 2-no                           
   RPACOR =    1.500    partial core radius                                     
   POMASS =   35.453; ZVAL   =    7.000    mass and valenz                      
   RCORE  =    1.900    outmost cutoff radius                                   
   RWIGS  =    2.100; RWIGS  =    1.111    wigner-seitz radius (au A)           
   ENMAX  =  262.472; ENMIN  =  196.854 eV                                      
   ICORE  =        2    local potential                                         
   LCOR   =        T    correct aug charges                                     
   LPAW   =        T    paw PP                                                  
   EAUG   =  356.192                                                            
   DEXC   =    0.000                                                            
   RMAX   =    1.945    core radius for proj-oper                               
   RAUG   =    1.300    factor for augmentation sphere                          
   RDEP   =    2.020    radius for radial grids                                 
   RDEPT  =    1.678    core radius for aug-charge                              
                                                                                
   Atomic configuration                                                         
    6 entries                                                                   
     n  l   j            E        occ.                                          
     1  0  0.50     -2751.1850   2.0000                                         
     2  0  0.50      -252.6861   2.0000                                         
     2  1  1.50      -191.6157   6.0000                                         
     3  0  0.50       -20.6916   2.0000                                         
     3  1  0.50        -8.5949   5.0000                                         
     3  2  1.50        -8.1635   0.0000                                         
   Description                                                                  
     l       E           TYP  RCUT    TYP  RCUT                                 
     0    -20.6915656     23  1.900                                             
     0    -22.0521482     23  1.900                                             
     1     -8.5948577     23  1.900                                             
     1     -5.3847331     23  1.900                                             
     2     -8.1634956     23  1.900                                             
  local pseudopotential read in
  partial core-charges read in
  partial kinetic energy density read in
  atomic valenz-charges read in
  non local Contribution for L=           0  read in
    real space projection operators read in
  non local Contribution for L=           0  read in
    real space projection operators read in
  non local Contribution for L=           1  read in
    real space projection operators read in
  non local Contribution for L=           1  read in
    real space projection operators read in
    PAW grid and wavefunctions read in
 
   number of l-projection  operators is LMAX  =           4
   number of lm-projection operators is LMMAX =           8
 

 ----------------------------------------------------------------------------- 
|                                                                             |
|  ADVICE TO THIS USER RUNNING 'VASP/VAMP'   (HEAR YOUR MASTER'S VOICE ...):  |
|                                                                             |
|      You have a (more or less) 'large supercell' and for larger cells       |
|      it might be more efficient to use real space projection opertators     |
|      So try LREAL= Auto  in the INCAR   file.                               |
|      Mind:          For very  accurate calculation you might also keep the  |
|      reciprocal projection scheme          (i.e. LREAL=.FALSE.)             |
|                                                                             |
 ----------------------------------------------------------------------------- 

  PAW_PBE Li_sv 10Sep2004               :
 energy of atom  1       EATOM= -202.7858
 kinetic energy error for atom=    0.0143 (will be added to EATOM!!)
  PAW_PBE P 06Sep2000                   :
 energy of atom  2       EATOM= -176.0430
 kinetic energy error for atom=    0.0013 (will be added to EATOM!!)
  PAW_PBE S 06Sep2000                   :
 energy of atom  3       EATOM= -276.8230
 kinetic energy error for atom=    0.0020 (will be added to EATOM!!)
  PAW_PBE Cl 06Sep2000                  :
 energy of atom  4       EATOM= -409.7259
 kinetic energy error for atom=    0.0030 (will be added to EATOM!!)
 
 
 POSCAR: New POSCAR file                         
  positions in cartesian coordinates
  No initial velocities read in
 exchange correlation table for  LEXCH =        8
   RHO(1)=    0.500       N(1)  =     2000
   RHO(2)=  100.500       N(2)  =     4000
 


--------------------------------------------------------------------------------------------------------


 ion  position               nearest neighbor table
   1  0.636  0.875  0.985-  54 2.14  51 2.32  27 2.56
   2  0.719  0.603  0.619-  61 2.37  40 2.39  47 2.61  55 2.62
   3  0.227  0.123  0.061-  59 2.47  50 2.48  56 2.51  44 2.62
   4  0.131  0.748  0.211-  49 2.45  65 2.47  31 2.58
   5  0.282  0.185  0.311-  56 2.40  53 2.60  50 2.65
   6  0.172  0.049  0.667-  63 2.22  41 2.40  39 2.52   9 2.56
   7  0.707  0.575  0.236-  42 2.25  54 2.44
   8  0.521  0.060  0.314-  64 2.20  37 2.35  53 2.36  56 2.43
   9  0.977  0.917  0.598-  40 2.19  52 2.35  63 2.39   6 2.56  39 2.65
  10  0.912  0.410  0.220-  49 2.37  62 2.37  46 2.44  50 2.52
  11  0.425  0.974  0.522-  53 2.25  39 2.34
  12  0.918  0.586  0.037-  65 2.22  33 2.50  54 2.55  46 2.64
  13  0.004  0.369  0.719-  55 2.33  48 2.44  41 2.46  45 2.63
  14  0.305  0.544  0.594-  61 2.20  45 2.42  60 2.45  34 2.47
  15  0.604  0.210  0.004-  51 2.22  57 2.57  46 2.59  56 2.65
  16  0.835  0.258  0.849-  55 2.18  48 2.37  28 2.45  51 2.62
  17  0.647  0.532  0.981-  46 2.10  47 2.38  54 2.48
  18  0.478  0.410  0.428-  61 2.32  53 2.40  42 2.41  60 2.66
  19  0.495  0.676  0.131-  54 2.44  43 2.54  42 2.54
  20  0.247  0.765  0.885-  43 2.29  65 2.39  63 2.39
  21  0.645  0.284  0.214-  46 2.32  56 2.51
  22  0.943  0.662  0.725-  47 2.39
  23  0.016  0.397  0.459-  60 2.25  35 2.32  62 2.48  41 2.53
  24  0.924  0.213  0.045-  50 2.35  48 2.43  51 2.45  46 2.63
  25  0.709  0.139  0.443-  64 2.17  62 2.31  52 2.48  53 2.66
  26  0.555  0.614  0.782-  47 2.41  61 2.59  43 2.61
  27  0.652  0.867  0.192-  54 2.09  64 2.37   1 2.56  37 2.64
  28  0.690  0.074  0.812-  51 2.10  57 2.41  16 2.45
  29  0.576  0.246  0.615-  53 2.32  57 2.42
  30  0.906  0.882  0.011-  65 2.39  51 2.44  54 2.65
  31  0.301  0.629  0.329-  60 2.25  42 2.26   4 2.58  34 2.66
  32  0.286  0.458  0.886-  45 2.14  43 2.15  33 2.42
  33  0.080  0.420  0.976-  48 1.91  44 2.39  32 2.42  12 2.50
  34  0.164  0.704  0.501-  39 2.07  35 2.12  14 2.47  31 2.66  60 2.79
  35  0.984  0.621  0.454-  49 1.97  34 2.12  40 2.18  23 2.32
  36  0.377  0.117  0.820-  57 2.07  38 2.23
  37  0.399  0.900  0.223-  59 1.91   8 2.35  27 2.64
  38  0.460  0.916  0.813-  58 1.84  36 2.23
  39  0.210  0.901  0.507-  34 2.07  11 2.34   6 2.52   9 2.65
  40  0.855  0.762  0.531-  35 2.18   9 2.19   2 2.39
  41  0.025  0.199  0.580-  52 2.11   6 2.40  13 2.46  23 2.53
  42  0.520  0.606  0.327-   7 2.25  31 2.26  18 2.41  19 2.54
  43  0.398  0.619  0.948-  32 2.15  20 2.29  19 2.54  26 2.61
  44  0.209  0.364  0.131-  50 2.08  33 2.39   3 2.62
  45  0.179  0.551  0.759-  32 2.14  14 2.42  13 2.63
  46  0.749  0.397  0.076-  17 2.10  21 2.32  10 2.44  15 2.59  24 2.63  12 2.64
  47  0.776  0.548  0.820-  55 2.14  17 2.38  22 2.39  26 2.41   2 2.61
  48  0.060  0.266  0.891-  33 1.91  16 2.37  24 2.43  13 2.44
  49  0.959  0.617  0.296-  35 1.97  10 2.37   4 2.45
  50  0.074  0.229  0.189-  44 2.08  24 2.35   3 2.48  10 2.52   5 2.65
  51  0.759  0.064  0.972-  28 2.10  15 2.22   1 2.32  30 2.44  24 2.45  16 2.62
  52  0.845  0.105  0.607-  41 2.11   9 2.35  25 2.48
  53  0.454  0.181  0.466-  11 2.25  29 2.32   8 2.36  18 2.40   5 2.60  25 2.66
  54  0.720  0.726  0.084-  27 2.09   1 2.14  19 2.44   7 2.44  17 2.48  12 2.55  30 2.65
  55  0.777  0.382  0.714-  47 2.14  16 2.18  13 2.33   2 2.62
  56  0.431  0.181  0.162-  59 2.23   5 2.40   8 2.43   3 2.51  21 2.51  15 2.65
  57  0.532  0.247  0.807-  36 2.07  28 2.41  29 2.42  15 2.57
  58  0.573  0.862  0.707-  38 1.84
  59  0.422  0.983  0.087-  37 1.91  56 2.23   3 2.47
  60  0.223  0.456  0.422-  31 2.25  23 2.25  14 2.45  18 2.66  34 2.79
  61  0.514  0.498  0.599-  14 2.20  18 2.32   2 2.37  26 2.59
  62  0.808  0.325  0.376-  25 2.31  10 2.37  23 2.48
  63  0.123  0.857  0.740-   6 2.22  20 2.39   9 2.39
  64  0.733  0.052  0.284-  25 2.17   8 2.20  27 2.37
  65  0.080  0.728  0.016-  12 2.22  20 2.39  30 2.39   4 2.47
 

IMPORTANT INFORMATION: All symmetrisations will be switched off!
NOSYMM: (Re-)initialisation of all symmetry stuff for point group C_1.

 
 
 KPOINTS: Regular mesh centered at Gamma          

Automatic generation of k-mesh.
Space group operators:
 irot       det(A)        alpha          n_x          n_y          n_z        tau_x        tau_y        tau_z
    1     1.000000     0.000000     1.000000     0.000000     0.000000     0.000000     0.000000     0.000000
 
 Subroutine IBZKPT returns following result:
 ===========================================
 
 Found      1 irreducible k-points:
 
 Following reciprocal coordinates:
            Coordinates               Weight
  0.000000  0.000000  0.000000      1.000000
 
 Following cartesian coordinates:
            Coordinates               Weight
  0.000000  0.000000  0.000000      1.000000
 


--------------------------------------------------------------------------------------------------------




 Dimension of arrays:
   k-points           NKPTS =      1   k-points in BZ     NKDIM =      1   number of bands    NBANDS=    184
   number of dos      NEDOS =    301   number of ions     NIONS =     65
   non local maximal  LDIM  =      4   non local SUM 2l+1 LMDIM =      8
   total plane-waves  NPLWV = 219520
   max r-space proj   IRMAX =      1   max aug-charges    IRDMAX=   5529
   dimension x,y,z NGX =    56 NGY =   56 NGZ =   70
   dimension x,y,z NGXF=   112 NGYF=  112 NGZF=  140
   support grid    NGXF=   112 NGYF=  112 NGZF=  140
   ions per type =              30   5  25   5
   NGX,Y,Z   is equivalent  to a cutoff of   9.08,  9.08,  9.42 a.u.
   NGXF,Y,Z  is equivalent  to a cutoff of  18.17, 18.17, 18.85 a.u.

 SYSTEM =  LPSC                                    
 POSCAR =  New POSCAR file                         

 Startparameter for this run:
   NWRITE =      2    write-flag & timer
   PREC   = normal    normal or accurate (medium, high low for compatibility)
   ISTART =      0    job   : 0-new  1-cont  2-samecut
   ICHARG =      2    charge: 1-file 2-atom 10-const
   ISPIN  =      1    spin polarized calculation?
   LNONCOLLINEAR =      F non collinear calculations
   LSORBIT =      F    spin-orbit coupling
   INIWAV =      1    electr: 0-lowe 1-rand  2-diag
   LASPH  =      F    aspherical Exc in radial PAW
   METAGGA=      F    non-selfconsistent MetaGGA calc.

 Electronic Relaxation 1
   ENCUT  =  500.0 eV  36.75 Ry    6.06 a.u.  18.69 18.69 22.52*2*pi/ulx,y,z
   ENINI  =  500.0     initial cutoff
   ENAUG  =  628.9 eV  augmentation charge cutoff
   NELM   =    100;   NELMIN=  2; NELMDL=-12     # of ELM steps 
   EDIFF  = 0.1E-05   stopping-criterion for ELM
   LREAL  =      F    real-space projection
   NLSPLINE    = F    spline interpolate recip. space projectors
   LCOMPAT=      F    compatible to vasp.4.4
   GGA_COMPAT  = T    GGA compatible to vasp.4.4-vasp.4.6
   LMAXPAW     = -100 max onsite density
   LMAXMIX     =    2 max onsite mixed and CHGCAR
   VOSKOWN=      0    Vosko Wilk Nusair interpolation
   ROPT   =    0.00000   0.00000   0.00000   0.00000
 Ionic relaxation
   EDIFFG = -.1E-01   stopping-criterion for IOM
   NSW    =      1    number of steps for IOM
   NBLOCK =      1;   KBLOCK =      1    inner block; outer block 
   IBRION =      2    ionic relax: 0-MD 1-quasi-New 2-CG
   NFREE  =      1    steps in history (QN), initial steepest desc. (CG)
   ISIF   =      2    stress and relaxation
   IWAVPR =     11    prediction:  0-non 1-charg 2-wave 3-comb
   ISYM   =      0    0-nonsym 1-usesym 2-fastsym
   LCORR  =      T    Harris-Foulkes like correction to forces

   POTIM  = 0.5000    time-step for ionic-motion
   TEIN   =    0.0    initial temperature
   TEBEG  =    0.0;   TEEND  =   0.0 temperature during run
   SMASS  =  -3.00    Nose mass-parameter (am)
   estimated Nose-frequenzy (Omega)   =  0.10E-29 period in steps =****** mass=  -0.240E-26a.u.
   SCALEE = 1.0000    scale energy and forces
   NPACO  =    256;   APACO  = 16.0  distance and # of slots for P.C.
   PSTRESS=    0.0 pullay stress

  Mass of Ions in am
   POMASS =   7.01 30.97 32.07 35.45
  Ionic Valenz
   ZVAL   =   3.00  5.00  6.00  7.00
  Atomic Wigner-Seitz radii
   RWIGS  =  -1.00 -1.00 -1.00 -1.00
  virtual crystal weights 
   VCA    =   1.00  1.00  1.00  1.00
   NELECT =     300.0000    total number of electrons
   NUPDOWN=      -1.0000    fix difference up-down

 DOS related values:
   EMIN   =  10.00;   EMAX   =-10.00  energy-range for DOS
   EFERMI =   0.00
   ISMEAR =     0;   SIGMA  =   0.05  broadening in eV -4-tet -1-fermi 0-gaus

 Electronic relaxation 2 (details)
   IALGO  =     48    algorithm
   LDIAG  =      T    sub-space diagonalisation (order eigenvalues)
   LSUBROT=      F    optimize rotation matrix (better conditioning)
   TURBO    =      0    0=normal 1=particle mesh
   IRESTART =      0    0=no restart 2=restart with 2 vectors
   NREBOOT  =      0    no. of reboots
   NMIN     =      0    reboot dimension
   EREF     =   0.00    reference energy to select bands
   IMIX   =      4    mixing-type and parameters
     AMIX     =   0.40;   BMIX     =  1.00
     AMIX_MAG =   1.60;   BMIX_MAG =  1.00
     AMIN     =   0.10
     WC   =   100.;   INIMIX=   1;  MIXPRE=   1;  MAXMIX= -45

 Intra band minimization:
   WEIMIN = 0.0010     energy-eigenvalue tresh-hold
   EBREAK =  0.14E-08  absolut break condition
   DEPER  =   0.30     relativ break condition  

   TIME   =   0.40     timestep for ELM

  volume/ion in A,a.u.               =      19.96       134.71
  Fermi-wavevector in a.u.,A,eV,Ry     =   1.004794  1.898785 13.736591  1.009611
  Thomas-Fermi vector in A             =   2.137432
 
 Write flags
   LWAVE        =      F    write WAVECAR
   LDOWNSAMPLE  =      F    k-point downsampling of WAVECAR
   LCHARG       =      F    write CHGCAR
   LVTOT        =      F    write LOCPOT, total local potential
   LVHAR        =      F    write LOCPOT, Hartree potential only
   LELF         =      F    write electronic localiz. function (ELF)
   LORBIT       =     11    0 simple, 1 ext, 2 COOP (PROOUT), +10 PAW based schemes


 Dipole corrections
   LMONO  =      F    monopole corrections only (constant potential shift)
   LDIPOL =      F    correct potential (dipole corrections)
   IDIPOL =      0    1-x, 2-y, 3-z, 4-all directions 
   EPSILON=  1.0000000 bulk dielectric constant

 Exchange correlation treatment:
   GGA     =    --    GGA type
   LEXCH   =     8    internal setting for exchange type
   VOSKOWN=      0    Vosko Wilk Nusair interpolation
   LHFCALC =     F    Hartree Fock is set to
   LHFONE  =     F    Hartree Fock one center treatment
   AEXX    =    0.0000 exact exchange contribution

 Linear response parameters
   LEPSILON=     F    determine dielectric tensor
   LRPA    =     F    only Hartree local field effects (RPA)
   LNABLA  =     F    use nabla operator in PAW spheres
   LVEL    =     F    velocity operator in full k-point grid
   LINTERFAST=   F  fast interpolation
   KINTER  =     0    interpolate to denser k-point grid
   CSHIFT  =0.1000    complex shift for real part using Kramers Kronig
   OMEGAMAX=  -1.0    maximum frequency
   DEG_THRESHOLD= 0.2000000E-02 threshold for treating states as degnerate
   RTIME   =   -0.100 relaxation time in fs
  (WPLASMAI=    0.000 imaginary part of plasma frequency in eV, 0.658/RTIME)
   DFIELD  = 0.0000000 0.0000000 0.0000000 field for delta impulse in time
 
 Orbital magnetization related:
   ORBITALMAG=     F  switch on orbital magnetization
   LCHIMAG   =     F  perturbation theory with respect to B field
   DQ        =  0.001000  dq finite difference perturbation B field
   LLRAUG    =     F  two centre corrections for induced B field



--------------------------------------------------------------------------------------------------------


 conjugate gradient relaxation of ions
 charge density and potential will be updated during run
 non-spin polarized calculation
 RMM-DIIS sequential band-by-band
 perform sub-space diagonalisation
    before iterative eigenvector-optimisation
 modified Broyden-mixing scheme, WC =      100.0
 initial mixing is a Kerker type mixing with AMIX =  0.4000 and BMIX =      1.0000
 Hartree-type preconditioning will be used
 using additional bands           34
 reciprocal scheme for non local part
 use partial core corrections
 calculate Harris-corrections to forces 
   (improved forces if not selfconsistent)
 use gradient corrections 
 use of overlap-Matrix (Vanderbilt PP)
 Gauss-broadening in eV      SIGMA  =   0.05


--------------------------------------------------------------------------------------------------------


  energy-cutoff  :      500.00
  volume of cell :     1297.52
      direct lattice vectors                 reciprocal lattice vectors
    10.250000000  0.000000000  0.000000000     0.097560976  0.000000000  0.000000000
     0.000000000 10.250000000  0.000000000     0.000000000  0.097560976  0.000000000
     0.000000000  0.000000000 12.350000000     0.000000000  0.000000000  0.080971660

  length of vectors
    10.250000000 10.250000000 12.350000000     0.097560976  0.097560976  0.080971660


 
 k-points in units of 2pi/SCALE and weight: Regular mesh centered at Gamma          
   0.00000000  0.00000000  0.00000000       1.000
 
 k-points in reciprocal lattice and weights: Regular mesh centered at Gamma          
   0.00000000  0.00000000  0.00000000       1.000
 
 position of ions in fractional coordinates (direct lattice) 
   0.63647707  0.87521366  0.98540891
   0.71921171  0.60331415  0.61893927
   0.22706732  0.12255902  0.06112300
   0.13082537  0.74780976  0.21081215
   0.28197854  0.18492683  0.31137490
   0.17173268  0.04925307  0.66685263
   0.70695317  0.57486537  0.23639352
   0.52148098  0.06006917  0.31376275
   0.97680000  0.91735220  0.59810526
   0.91163707  0.41025073  0.22019271
   0.42521366  0.97423610  0.52185911
   0.91825756  0.58623024  0.03715061
   0.00410039  0.36908000  0.71937490
   0.30527415  0.54403415  0.59357166
   0.60423122  0.21002146  0.00426497
   0.83521756  0.25807024  0.84867206
   0.64741268  0.53213463  0.98070445
   0.47813659  0.40965951  0.42847611
   0.49467122  0.67645659  0.13130931
   0.24721463  0.76492976  0.88464777
   0.64452878  0.28420683  0.21421862
   0.94335707  0.66243024  0.72460243
   0.01619824  0.39718829  0.45884211
   0.92373561  0.21313756  0.04541255
   0.70895317  0.13898732  0.44278866
   0.55451220  0.61436488  0.78207692
   0.65204780  0.86662537  0.19222996
   0.69019902  0.07354761  0.81240486
   0.57616683  0.24574146  0.61464453
   0.90627707  0.88234732  0.01057870
   0.30060098  0.62878537  0.32890526
   0.28601561  0.45828195  0.88560324
   0.08040771  0.41995512  0.97628340
   0.16393268  0.70405171  0.50148016
   0.98382439  0.62075317  0.45418947
   0.37746732  0.11718927  0.82038866
   0.39925073  0.90016000  0.22346316
   0.45966439  0.91608293  0.81339271
   0.20982537  0.90094049  0.50697490
   0.85485854  0.76158146  0.53145101
   0.02454410  0.19851024  0.57997409
   0.51950049  0.60595805  0.32721377
   0.39805756  0.61886049  0.94833198
   0.20890146  0.36362244  0.13095223
   0.17880683  0.55096293  0.75882510
   0.74900976  0.39735902  0.07648704
   0.77550829  0.54788098  0.82004049
   0.06023327  0.26563024  0.89086640
   0.95870537  0.61690634  0.29618462
   0.07395854  0.22938634  0.18885911
   0.75920585  0.06429141  0.97197571
   0.84461073  0.10467122  0.60651417
   0.45406927  0.18126049  0.46592874
   0.72032195  0.72596098  0.08412146
   0.77720195  0.38212488  0.71413360
   0.43102439  0.18142732  0.16196356
   0.53182732  0.24673366  0.80740324
   0.57257951  0.86249854  0.70686316
   0.42195415  0.98346341  0.08680000
   0.22327317  0.45643805  0.42174656
   0.51448488  0.49819220  0.59908502
   0.80806049  0.32534927  0.37638947
   0.12319805  0.85748488  0.74039676
   0.73325659  0.05238302  0.28389231
   0.08036312  0.72797366  0.01572470
 
 position of ions in cartesian coordinates  (Angst):
   6.52389000  8.97094000 12.16980000
   7.37192000  6.18397000  7.64390000
   2.32744000  1.25623000  0.75486900
   1.34096000  7.66505000  2.60353000
   2.89028000  1.89550000  3.84548000
   1.76026000  0.50484400  8.23563000
   7.24627000  5.89237000  2.91946000
   5.34518000  0.61570900  3.87497000
  10.01220000  9.40286000  7.38660000
   9.34428000  4.20507000  2.71938000
   4.35844000  9.98592000  6.44496000
   9.41214000  6.00886000  0.45881000
   0.04202900  3.78307000  8.88428000
   3.12906000  5.57635000  7.33061000
   6.19337000  2.15272000  0.05267240
   8.56098000  2.64522000 10.48110000
   6.63598000  5.45438000 12.11170000
   4.90090000  4.19901000  5.29168000
   5.07038000  6.93368000  1.62167000
   2.53395000  7.84053000 10.92540000
   6.60642000  2.91312000  2.64560000
   9.66941000  6.78991000  8.94884000
   0.16603200  4.07118000  5.66670000
   9.46829000  2.18466000  0.56084500
   7.26677000  1.42462000  5.46844000
   5.68375000  6.29724000  9.65865000
   6.68349000  8.88291000  2.37404000
   7.07454000  0.75386300 10.03320000
   5.90571000  2.51885000  7.59086000
   9.28934000  9.04406000  0.13064700
   3.08116000  6.44505000  4.06198000
   2.93166000  4.69739000 10.93720000
   0.82417900  4.30454000 12.05710000
   1.68031000  7.21653000  6.19328000
  10.08420000  6.36272000  5.60924000
   3.86904000  1.20119000 10.13180000
   4.09232000  9.22664000  2.75977000
   4.71156000  9.38985000 10.04540000
   2.15071000  9.23464000  6.26114000
   8.76230000  7.80621000  6.56342000
   0.25157700  2.03473000  7.16268000
   5.32488000  6.21107000  4.04109000
   4.08009000  6.34332000 11.71190000
   2.14124000  3.72713000  1.61726000
   1.83277000  5.64737000  9.37149000
   7.67735000  4.07293000  0.94461500
   7.94896000  5.61578000 10.12750000
   0.61739100  2.72271000 11.00220000
   9.82673000  6.32329000  3.65788000
   0.75807500  2.35121000  2.33241000
   7.78186000  0.65898700 12.00390000
   8.65726000  1.07288000  7.49045000
   4.65421000  1.85792000  5.75422000
   7.38330000  7.44110000  1.03890000
   7.96632000  3.91678000  8.81955000
   4.41800000  1.85963000  2.00025000
   5.45123000  2.52902000  9.97143000
   5.86894000  8.84061000  8.72976000
   4.32503000 10.08050000  1.07198000
   2.28855000  4.67849000  5.20857000
   5.27347000  5.10647000  7.39870000
   8.28262000  3.33483000  4.64841000
   1.26278000  8.78922000  9.14390000
   7.51588000  0.53692600  3.50607000
   0.82372200  7.46173000  0.19420000
 


--------------------------------------------------------------------------------------------------------


 k-point  1 :   0.0000 0.0000 0.0000  plane waves:   33049

 maximum and minimum number of plane-waves per node :      4138     4129

 maximum number of plane-waves:     33049
 maximum index in each direction: 
   IXMAX=   18   IYMAX=   18   IZMAX=   22
   IXMIN=  -18   IYMIN=  -18   IZMIN=  -22


 parallel 3D FFT for wavefunctions:
    minimum data exchange during FFTs selected (reduces bandwidth)
 parallel 3D FFT for charge:
    minimum data exchange during FFTs selected (reduces bandwidth)


 total amount of memory used by VASP MPI-rank0    42204. kBytes
=======================================================================

   base      :      30000. kBytes
   nonl-proj :       5360. kBytes
   fftplans  :       1886. kBytes
   grid      :       3386. kBytes
   one-center:         27. kBytes
   wavefun   :       1545. kBytes
 
     INWAV:  cpu time    0.0001: real time    0.0001
 Broyden mixing: mesh for mixing (old mesh)
   NGX = 37   NGY = 37   NGZ = 45
  (NGX  =112   NGY  =112   NGZ  =140)
  gives a total of  61605 points

 initial charge density was supplied:
 charge density of overlapping atoms calculated
 number of electron     300.0000000 magnetization 
 keeping initial charge density in first step


--------------------------------------------------------------------------------------------------------


 Maximum index for augmentation-charges          362 (set IRDMAX)


--------------------------------------------------------------------------------------------------------


 First call to EWALD:  gamma=   0.163
 Maximum number of real-space cells 3x 3x 2
 Maximum number of reciprocal cells 3x 3x 3

    FEWALD:  cpu time    0.0088: real time    0.0095


--------------------------------------- Iteration      1(   1)  ---------------------------------------


    POTLOK:  cpu time    0.0859: real time    0.1041
    SETDIJ:  cpu time    0.0155: real time    0.0174
    EDDIAG:  cpu time    0.2510: real time    0.2651
  RMM-DIIS:  cpu time    0.3377: real time    0.3404
    ORTHCH:  cpu time    0.0205: real time    0.0205
       DOS:  cpu time    0.0013: real time    0.0027
    --------------------------------------------
      LOOP:  cpu time    0.7122: real time    0.7505

 eigenvalue-minimisations  :   184
 total energy-change (2. order) :-0.1086012E+04  (-0.1468786E+05)
 number of electron     300.0000000 magnetization 
 augmentation part      300.0000000 magnetization 

 Free energy of the ion-electron system (eV)
  ---------------------------------------------------
  alpha Z        PSCENC =       256.70245505
  Ewald energy   TEWEN  =     -9719.68632727
  -Hartree energ DENC   =     -3527.06013417
  -exchange      EXHF   =         0.00000000
  -V(xc)+E(xc)   XCENC  =       792.77352971
  PAW double counting   =     10155.13001117   -10497.29644279
  entropy T*S    EENTRO =        -0.00000633
  eigenvalues    EBANDS =     -4479.07032044
  atomic energy  EATOM  =     15932.49537490
  Solvation  Ediel_sol  =         0.00000000
  ---------------------------------------------------
  free energy    TOTEN  =     -1086.01186017 eV

  energy without entropy =    -1086.01185384  energy(sigma->0) =    -1086.01185700


--------------------------------------------------------------------------------------------------------




--------------------------------------- Iteration      1(   2)  ---------------------------------------


    EDDIAG:  cpu time    0.1883: real time    0.1882
  RMM-DIIS:  cpu time    0.3255: real time    0.3254
    ORTHCH:  cpu time    0.0204: real time    0.0204
       DOS:  cpu time    0.0008: real time    0.0008
    --------------------------------------------
      LOOP:  cpu time    0.5349: real time    0.5348

 eigenvalue-minimisations  :   184
 total energy-change (2. order) : 0.1847966E+04  (-0.2307569E+04)
 number of electron     300.0000000 magnetization 
 augmentation part      300.0000000 magnetization 

 Free energy of the ion-electron system (eV)
  ---------------------------------------------------
  alpha Z        PSCENC =       256.70245505
  Ewald energy   TEWEN  =     -9719.68632727
  -Hartree energ DENC   =     -3527.06013417
  -exchange      EXHF   =         0.00000000
  -V(xc)+E(xc)   XCENC  =       792.77352971
  PAW double counting   =     10155.13001117   -10497.29644279
  entropy T*S    EENTRO =        -0.00000000
  eigenvalues    EBANDS =     -2631.10458865
  atomic energy  EATOM  =     15932.49537490
  Solvation  Ediel_sol  =         0.00000000
  ---------------------------------------------------
  free energy    TOTEN  =       761.95387795 eV

  energy without entropy =      761.95387795  energy(sigma->0) =      761.95387795


--------------------------------------------------------------------------------------------------------




--------------------------------------- Iteration      1(   3)  ---------------------------------------


    EDDIAG:  cpu time    0.1868: real time    0.1867
  RMM-DIIS:  cpu time    0.3241: real time    0.3247
    ORTHCH:  cpu time    0.0205: real time    0.0205
       DOS:  cpu time    0.0009: real time    0.0009
    --------------------------------------------
      LOOP:  cpu time    0.5323: real time    0.5328

 eigenvalue-minimisations  :   184
 total energy-change (2. order) :-0.5088860E+03  (-0.7382471E+03)
 number of electron     300.0000000 magnetization 
 augmentation part      300.0000000 magnetization 

 Free energy of the ion-electron system (eV)
  ---------------------------------------------------
  alpha Z        PSCENC =       256.70245505
  Ewald energy   TEWEN  =     -9719.68632727
  -Hartree energ DENC   =     -3527.06013417
  -exchange      EXHF   =         0.00000000
  -V(xc)+E(xc)   XCENC  =       792.77352971
  PAW double counting   =     10155.13001117   -10497.29644279
  entropy T*S    EENTRO =        -0.00000036
  eigenvalues    EBANDS =     -3139.99057347
  atomic energy  EATOM  =     15932.49537490
  Solvation  Ediel_sol  =         0.00000000
  ---------------------------------------------------
  free energy    TOTEN  =       253.06789277 eV

  energy without entropy =      253.06789313  energy(sigma->0) =      253.06789295


--------------------------------------------------------------------------------------------------------




--------------------------------------- Iteration      1(   4)  ---------------------------------------


    EDDIAG:  cpu time    0.1872: real time    0.1880
  RMM-DIIS:  cpu time    0.3253: real time    0.3255
    ORTHCH:  cpu time    0.0204: real time    0.0205
       DOS:  cpu time    0.0010: real time    0.0010
    --------------------------------------------
      LOOP:  cpu time    0.5340: real time    0.5350

 eigenvalue-minimisations  :   184
 total energy-change (2. order) :-0.2578209E+03  (-0.2615116E+03)
 number of electron     300.0000000 magnetization 
 augmentation part      300.0000000 magnetization 

 Free energy of the ion-electron system (eV)
  ---------------------------------------------------
  alpha Z        PSCENC =       256.70245505
  Ewald energy   TEWEN  =     -9719.68632727
  -Hartree energ DENC   =     -3527.06013417
  -exchange      EXHF   =         0.00000000
  -V(xc)+E(xc)   XCENC  =       792.77352971
  PAW double counting   =     10155.13001117   -10497.29644279
  entropy T*S    EENTRO =        -0.02174820
  eigenvalues    EBANDS =     -3397.78977084
  atomic energy  EATOM  =     15932.49537490
  Solvation  Ediel_sol  =         0.00000000
  ---------------------------------------------------
  free energy    TOTEN  =        -4.75305244 eV

  energy without entropy =       -4.73130424  energy(sigma->0) =       -4.74217834


--------------------------------------------------------------------------------------------------------




--------------------------------------- Iteration      1(   5)  ---------------------------------------


    EDDIAG:  cpu time    0.1823: real time    0.1830
  RMM-DIIS:  cpu time    0.3242: real time    0.3239
    ORTHCH:  cpu time    0.0205: real time    0.0205
       DOS:  cpu time    0.0007: real time    0.0007
    --------------------------------------------
      LOOP:  cpu time    0.5278: real time    0.5281

 eigenvalue-minimisations  :   184
 total energy-change (2. order) :-0.1136228E+03  (-0.1026160E+03)
 number of electron     300.0000000 magnetization 
 augmentation part      300.0000000 magnetization 

 Free energy of the ion-electron system (eV)
  ---------------------------------------------------
  alpha Z        PSCENC =       256.70245505
  Ewald energy   TEWEN  =     -9719.68632727
  -Hartree energ DENC   =     -3527.06013417
  -exchange      EXHF   =         0.00000000
  -V(xc)+E(xc)   XCENC  =       792.77352971
  PAW double counting   =     10155.13001117   -10497.29644279
  entropy T*S    EENTRO =        -0.00000000
  eigenvalues    EBANDS =     -3511.43428248
  atomic energy  EATOM  =     15932.49537490
  Solvation  Ediel_sol  =         0.00000000
  ---------------------------------------------------
  free energy    TOTEN  =      -118.37581588 eV

  energy without entropy =     -118.37581588  energy(sigma->0) =     -118.37581588


--------------------------------------------------------------------------------------------------------




--------------------------------------- Iteration      1(   6)  ---------------------------------------


    EDDIAG:  cpu time    0.1825: real time    0.1826
  RMM-DIIS:  cpu time    0.3226: real time    0.3224
    ORTHCH:  cpu time    0.0202: real time    0.0201
       DOS:  cpu time    0.0007: real time    0.0007
    --------------------------------------------
      LOOP:  cpu time    0.5260: real time    0.5258

 eigenvalue-minimisations  :   184
 total energy-change (2. order) :-0.4705553E+02  (-0.4371250E+02)
 number of electron     300.0000000 magnetization 
 augmentation part      300.0000000 magnetization 

 Free energy of the ion-electron system (eV)
  ---------------------------------------------------
  alpha Z        PSCENC =       256.70245505
  Ewald energy   TEWEN  =     -9719.68632727
  -Hartree energ DENC   =     -3527.06013417
  -exchange      EXHF   =         0.00000000
  -V(xc)+E(xc)   XCENC  =       792.77352971
  PAW double counting   =     10155.13001117   -10497.29644279
  entropy T*S    EENTRO =        -0.00000000
  eigenvalues    EBANDS =     -3558.48980933
  atomic energy  EATOM  =     15932.49537490
  Solvation  Ediel_sol  =         0.00000000
  ---------------------------------------------------
  free energy    TOTEN  =      -165.43134273 eV

  energy without entropy =     -165.43134273  energy(sigma->0) =     -165.43134273


--------------------------------------------------------------------------------------------------------




--------------------------------------- Iteration      1(   7)  ---------------------------------------


    EDDIAG:  cpu time    0.1797: real time    0.1805
  RMM-DIIS:  cpu time    0.3217: real time    0.3214
    ORTHCH:  cpu time    0.0206: real time    0.0205
       DOS:  cpu time    0.0007: real time    0.0007
    --------------------------------------------
      LOOP:  cpu time    0.5226: real time    0.5230

 eigenvalue-minimisations  :   184
 total energy-change (2. order) :-0.2314126E+02  (-0.2206454E+02)
 number of electron     300.0000000 magnetization 
 augmentation part      300.0000000 magnetization 

 Free energy of the ion-electron system (eV)
  ---------------------------------------------------
  alpha Z        PSCENC =       256.70245505
  Ewald energy   TEWEN  =     -9719.68632727
  -Hartree energ DENC   =     -3527.06013417
  -exchange      EXHF   =         0.00000000
  -V(xc)+E(xc)   XCENC  =       792.77352971
  PAW double counting   =     10155.13001117   -10497.29644279
  entropy T*S    EENTRO =        -0.00000000
  eigenvalues    EBANDS =     -3581.63107022
  atomic energy  EATOM  =     15932.49537490
  Solvation  Ediel_sol  =         0.00000000
  ---------------------------------------------------
  free energy    TOTEN  =      -188.57260362 eV

  energy without entropy =     -188.57260362  energy(sigma->0) =     -188.57260362


--------------------------------------------------------------------------------------------------------




--------------------------------------- Iteration      1(   8)  ---------------------------------------


    EDDIAG:  cpu time    0.1802: real time    0.1805
  RMM-DIIS:  cpu time    0.3221: real time    0.3228
    ORTHCH:  cpu time    0.0201: real time    0.0201
       DOS:  cpu time    0.0007: real time    0.0007
    --------------------------------------------
      LOOP:  cpu time    0.5231: real time    0.5241

 eigenvalue-minimisations  :   184
 total energy-change (2. order) :-0.1362485E+02  (-0.1281179E+02)
 number of electron     300.0000000 magnetization 
 augmentation part      300.0000000 magnetization 

 Free energy of the ion-electron system (eV)
  ---------------------------------------------------
  alpha Z        PSCENC =       256.70245505
  Ewald energy   TEWEN  =     -9719.68632727
  -Hartree energ DENC   =     -3527.06013417
  -exchange      EXHF   =         0.00000000
  -V(xc)+E(xc)   XCENC  =       792.77352971
  PAW double counting   =     10155.13001117   -10497.29644279
  entropy T*S    EENTRO =        -0.00000000
  eigenvalues    EBANDS =     -3595.25591570
  atomic energy  EATOM  =     15932.49537490
  Solvation  Ediel_sol  =         0.00000000
  ---------------------------------------------------
  free energy    TOTEN  =      -202.19744910 eV

  energy without entropy =     -202.19744910  energy(sigma->0) =     -202.19744910


--------------------------------------------------------------------------------------------------------




--------------------------------------- Iteration      1(   9)  ---------------------------------------


    EDDIAG:  cpu time    0.1809: real time    0.1807
  RMM-DIIS:  cpu time    1.1568: real time    1.1575
    ORTHCH:  cpu time    0.0305: real time    0.0305
       DOS:  cpu time    0.0006: real time    0.0006
    --------------------------------------------
      LOOP:  cpu time    1.3689: real time    1.3695

 eigenvalue-minimisations  :   668
 total energy-change (2. order) :-0.3547911E+02  (-0.3521386E+02)
 number of electron     300.0000000 magnetization 
 augmentation part      300.0000000 magnetization 

 Free energy of the ion-electron system (eV)
  ---------------------------------------------------
  alpha Z        PSCENC =       256.70245505
  Ewald energy   TEWEN  =     -9719.68632727
  -Hartree energ DENC   =     -3527.06013417
  -exchange      EXHF   =         0.00000000
  -V(xc)+E(xc)   XCENC  =       792.77352971
  PAW double counting   =     10155.13001117   -10497.29644279
  entropy T*S    EENTRO =        -0.00000000
  eigenvalues    EBANDS =     -3630.73502117
  atomic energy  EATOM  =     15932.49537490
  Solvation  Ediel_sol  =         0.00000000
  ---------------------------------------------------
  free energy    TOTEN  =      -237.67655457 eV

  energy without entropy =     -237.67655457  energy(sigma->0) =     -237.67655457


--------------------------------------------------------------------------------------------------------




--------------------------------------- Iteration      1(  10)  ---------------------------------------


    EDDIAG:  cpu time    0.2044: real time    0.2047
  RMM-DIIS:  cpu time    1.2568: real time    1.2578
    ORTHCH:  cpu time    0.0252: real time    0.0252
       DOS:  cpu time    0.0007: real time    0.0007
    --------------------------------------------
      LOOP:  cpu time    1.4870: real time    1.4883

 eigenvalue-minimisations  :   666
 total energy-change (2. order) :-0.1785589E+02  (-0.1763482E+02)
 number of electron     300.0000000 magnetization 
 augmentation part      300.0000000 magnetization 

 Free energy of the ion-electron system (eV)
  ---------------------------------------------------
  alpha Z        PSCENC =       256.70245505
  Ewald energy   TEWEN  =     -9719.68632727
  -Hartree energ DENC   =     -3527.06013417
  -exchange      EXHF   =         0.00000000
  -V(xc)+E(xc)   XCENC  =       792.77352971
  PAW double counting   =     10155.13001117   -10497.29644279
  entropy T*S    EENTRO =        -0.00000000
  eigenvalues    EBANDS =     -3648.59091280
  atomic energy  EATOM  =     15932.49537490
  Solvation  Ediel_sol  =         0.00000000
  ---------------------------------------------------
  free energy    TOTEN  =      -255.53244620 eV

  energy without entropy =     -255.53244620  energy(sigma->0) =     -255.53244620


--------------------------------------------------------------------------------------------------------




--------------------------------------- Iteration      1(  11)  ---------------------------------------


    EDDIAG:  cpu time    0.1882: real time    0.1881
  RMM-DIIS:  cpu time    1.0846: real time    1.0848
    ORTHCH:  cpu time    0.0264: real time    0.0264
       DOS:  cpu time    0.0007: real time    0.0007
    --------------------------------------------
      LOOP:  cpu time    1.2999: real time    1.3000

 eigenvalue-minimisations  :   642
 total energy-change (2. order) :-0.3878850E+01  (-0.3979693E+01)
 number of electron     300.0000000 magnetization 
 augmentation part      300.0000000 magnetization 

 Free energy of the ion-electron system (eV)
  ---------------------------------------------------
  alpha Z        PSCENC =       256.70245505
  Ewald energy   TEWEN  =     -9719.68632727
  -Hartree energ DENC   =     -3527.06013417
  -exchange      EXHF   =         0.00000000
  -V(xc)+E(xc)   XCENC  =       792.77352971
  PAW double counting   =     10155.13001117   -10497.29644279
  entropy T*S    EENTRO =        -0.00000000
  eigenvalues    EBANDS =     -3652.46976281
  atomic energy  EATOM  =     15932.49537490
  Solvation  Ediel_sol  =         0.00000000
  ---------------------------------------------------
  free energy    TOTEN  =      -259.41129621 eV

  energy without entropy =     -259.41129621  energy(sigma->0) =     -259.41129621


--------------------------------------------------------------------------------------------------------




--------------------------------------- Iteration      1(  12)  ---------------------------------------


    EDDIAG:  cpu time    0.1875: real time    0.1874
  RMM-DIIS:  cpu time    1.0814: real time    1.0828
    ORTHCH:  cpu time    0.0251: real time    0.0251
       DOS:  cpu time    0.0007: real time    0.0007
    CHARGE:  cpu time    0.0443: real time    0.0476
    MIXING:  cpu time    0.0059: real time    0.0089
    --------------------------------------------
      LOOP:  cpu time    1.3450: real time    1.3526

 eigenvalue-minimisations  :   637
 total energy-change (2. order) :-0.2299383E+01  (-0.2300569E+01)
 number of electron     300.0000410 magnetization 
 augmentation part        1.9205299 magnetization 

 Broyden mixing:
  rms(total) = 0.41099E+01    rms(broyden)= 0.41084E+01
  rms(prec ) = 0.43748E+01
  weight for this iteration     100.00

 Free energy of the ion-electron system (eV)
  ---------------------------------------------------
  alpha Z        PSCENC =       256.70245505
  Ewald energy   TEWEN  =     -9719.68632727
  -Hartree energ DENC   =     -3527.06013417
  -exchange      EXHF   =         0.00000000
  -V(xc)+E(xc)   XCENC  =       792.77352971
  PAW double counting   =     10155.13001117   -10497.29644279
  entropy T*S    EENTRO =        -0.00000000
  eigenvalues    EBANDS =     -3654.76914561
  atomic energy  EATOM  =     15932.49537490
  Solvation  Ediel_sol  =         0.00000000
  ---------------------------------------------------
  free energy    TOTEN  =      -261.71067901 eV

  energy without entropy =     -261.71067901  energy(sigma->0) =     -261.71067901


--------------------------------------------------------------------------------------------------------




--------------------------------------- Iteration      1(  13)  ---------------------------------------


    POTLOK:  cpu time    0.0691: real time    0.0695
    SETDIJ:  cpu time    0.0147: real time    0.0147
    EDDIAG:  cpu time    0.1821: real time    0.1819
  RMM-DIIS:  cpu time    0.8382: real time    0.8388
    ORTHCH:  cpu time    0.0256: real time    0.0256
       DOS:  cpu time    0.0007: real time    0.0007
    CHARGE:  cpu time    0.0414: real time    0.0414
    MIXING:  cpu time    0.0036: real time    0.0046
    --------------------------------------------
      LOOP:  cpu time    1.1754: real time    1.1772

 eigenvalue-minimisations  :   495
 total energy-change (2. order) : 0.9872747E+01  (-0.2560015E+01)
 number of electron     300.0000405 magnetization 
 augmentation part        2.0744620 magnetization 

 Broyden mixing:
  rms(total) = 0.26527E+01    rms(broyden)= 0.26526E+01
  rms(prec ) = 0.27483E+01
  weight for this iteration     100.00

 eigenvalues of (default mixing * dielectric matrix)
  average eigenvalue GAMMA=   2.2803
  2.2803

 Free energy of the ion-electron system (eV)
  ---------------------------------------------------
  alpha Z        PSCENC =       256.70245505
  Ewald energy   TEWEN  =     -9719.68632727
  -Hartree energ DENC   =     -3618.46205796
  -exchange      EXHF   =         0.00000000
  -V(xc)+E(xc)   XCENC  =       799.06949447
  PAW double counting   =     14104.15341663   -14452.76370375
  entropy T*S    EENTRO =        -0.00000000
  eigenvalues    EBANDS =     -3553.34658408
  atomic energy  EATOM  =     15932.49537490
  Solvation  Ediel_sol  =         0.00000000
  ---------------------------------------------------
  free energy    TOTEN  =      -251.83793200 eV

  energy without entropy =     -251.83793200  energy(sigma->0) =     -251.83793200


--------------------------------------------------------------------------------------------------------




--------------------------------------- Iteration      1(  14)  ---------------------------------------


    POTLOK:  cpu time    0.0689: real time    0.0689
    SETDIJ:  cpu time    0.0146: real time    0.0146
    EDDIAG:  cpu time    0.1805: real time    0.1804
  RMM-DIIS:  cpu time    0.8841: real time    0.8847
    ORTHCH:  cpu time    0.0273: real time    0.0272
       DOS:  cpu time    0.0008: real time    0.0008
    CHARGE:  cpu time    0.0411: real time    0.0411
    MIXING:  cpu time    0.0035: real time    0.0035
    --------------------------------------------
      LOOP:  cpu time    1.2208: real time    1.2212

 eigenvalue-minimisations  :   523
 total energy-change (2. order) : 0.1098953E+01  (-0.2035037E+01)
 number of electron     300.0000398 magnetization 
 augmentation part        1.8973139 magnetization 

 Broyden mixing:
  rms(total) = 0.71171E+00    rms(broyden)= 0.71159E+00
  rms(prec ) = 0.75632E+00
  weight for this iteration     100.00

 eigenvalues of (default mixing * dielectric matrix)
  average eigenvalue GAMMA=   1.9097
  1.3951  2.4244

 Free energy of the ion-electron system (eV)
  ---------------------------------------------------
  alpha Z        PSCENC =       256.70245505
  Ewald energy   TEWEN  =     -9719.68632727
  -Hartree energ DENC   =     -3708.30923205
  -exchange      EXHF   =         0.00000000
  -V(xc)+E(xc)   XCENC  =       805.71230237
  PAW double counting   =     21811.86962283   -22168.19443735
  entropy T*S    EENTRO =        -0.00000000
  eigenvalues    EBANDS =     -3461.32873705
  atomic energy  EATOM  =     15932.49537490
  Solvation  Ediel_sol  =         0.00000000
  ---------------------------------------------------
  free energy    TOTEN  =      -250.73897857 eV

  energy without entropy =     -250.73897857  energy(sigma->0) =     -250.73897857


--------------------------------------------------------------------------------------------------------




--------------------------------------- Iteration      1(  15)  ---------------------------------------


    POTLOK:  cpu time    0.0675: real time    0.0683
    SETDIJ:  cpu time    0.0146: real time    0.0146
    EDDIAG:  cpu time    0.1807: real time    0.1807
  RMM-DIIS:  cpu time    1.0111: real time    1.0114
    ORTHCH:  cpu time    0.0266: real time    0.0266
       DOS:  cpu time    0.0008: real time    0.0008
    CHARGE:  cpu time    0.0409: real time    0.0410
    MIXING:  cpu time    0.0035: real time    0.0035
    --------------------------------------------
      LOOP:  cpu time    1.3458: real time    1.3469

 eigenvalue-minimisations  :   587
 total energy-change (2. order) :-0.1234507E+00  (-0.4361615E+00)
 number of electron     300.0000394 magnetization 
 augmentation part        1.5294600 magnetization 

 Broyden mixing:
  rms(total) = 0.16748E+00    rms(broyden)= 0.16699E+00
  rms(prec ) = 0.19380E+00
  weight for this iteration     100.00

 eigenvalues of (default mixing * dielectric matrix)
  average eigenvalue GAMMA=   1.6015
  2.3534  1.0966  1.3544

 Free energy of the ion-electron system (eV)
  ---------------------------------------------------
  alpha Z        PSCENC =       256.70245505
  Ewald energy   TEWEN  =     -9719.68632727
  -Hartree energ DENC   =     -3709.35754060
  -exchange      EXHF   =         0.00000000
  -V(xc)+E(xc)   XCENC  =       806.01187040
  PAW double counting   =     23834.15214876   -24192.56369083
  entropy T*S    EENTRO =        -0.00000000
  eigenvalues    EBANDS =     -3458.61671965
  atomic energy  EATOM  =     15932.49537490
  Solvation  Ediel_sol  =         0.00000000
  ---------------------------------------------------
  free energy    TOTEN  =      -250.86242924 eV

  energy without entropy =     -250.86242924  energy(sigma->0) =     -250.86242924


--------------------------------------------------------------------------------------------------------




--------------------------------------- Iteration      1(  16)  ---------------------------------------


    POTLOK:  cpu time    0.0671: real time    0.0672
    SETDIJ:  cpu time    0.0147: real time    0.0146
    EDDIAG:  cpu time    0.1812: real time    0.1810
  RMM-DIIS:  cpu time    1.0707: real time    1.0713
    ORTHCH:  cpu time    0.0256: real time    0.0256
       DOS:  cpu time    0.0007: real time    0.0007
    CHARGE:  cpu time    0.0406: real time    0.0414
    MIXING:  cpu time    0.0036: real time    0.0036
    --------------------------------------------
      LOOP:  cpu time    1.4041: real time    1.4054

 eigenvalue-minimisations  :   632
 total energy-change (2. order) :-0.9721226E-01  (-0.1541078E+00)
 number of electron     300.0000392 magnetization 
 augmentation part        1.3011150 magnetization 

 Broyden mixing:
  rms(total) = 0.13337E+00    rms(broyden)= 0.13301E+00
  rms(prec ) = 0.14705E+00
  weight for this iteration     100.00

 eigenvalues of (default mixing * dielectric matrix)
  average eigenvalue GAMMA=   1.7722
  1.0649  2.2565  1.8838  1.8838

 Free energy of the ion-electron system (eV)
  ---------------------------------------------------
  alpha Z        PSCENC =       256.70245505
  Ewald energy   TEWEN  =     -9719.68632727
  -Hartree energ DENC   =     -3709.84784750
  -exchange      EXHF   =         0.00000000
  -V(xc)+E(xc)   XCENC  =       806.11621009
  PAW double counting   =     23724.13651707   -24082.80081466
  entropy T*S    EENTRO =        -0.00000000
  eigenvalues    EBANDS =     -3458.07520918
  atomic energy  EATOM  =     15932.49537490
  Solvation  Ediel_sol  =         0.00000000
  ---------------------------------------------------
  free energy    TOTEN  =      -250.95964150 eV

  energy without entropy =     -250.95964150  energy(sigma->0) =     -250.95964150


--------------------------------------------------------------------------------------------------------




--------------------------------------- Iteration      1(  17)  ---------------------------------------


    POTLOK:  cpu time    0.0679: real time    0.0678
    SETDIJ:  cpu time    0.0146: real time    0.0146
    EDDIAG:  cpu time    0.1882: real time    0.1881
  RMM-DIIS:  cpu time    1.1642: real time    1.1646
    ORTHCH:  cpu time    0.0358: real time    0.0358
       DOS:  cpu time    0.0009: real time    0.0009
    CHARGE:  cpu time    0.0473: real time    0.0472
    MIXING:  cpu time    0.0049: real time    0.0049
    --------------------------------------------
      LOOP:  cpu time    1.5238: real time    1.5239

 eigenvalue-minimisations  :   610
 total energy-change (2. order) :-0.9689544E-01  (-0.9103642E-01)
 number of electron     300.0000391 magnetization 
 augmentation part        1.1883860 magnetization 

 Broyden mixing:
  rms(total) = 0.48713E-01    rms(broyden)= 0.48307E-01
  rms(prec ) = 0.56511E-01
  weight for this iteration     100.00

 eigenvalues of (default mixing * dielectric matrix)
  average eigenvalue GAMMA=   1.7942
  2.5422  2.5422  1.0119  1.1691  1.7059

 Free energy of the ion-electron system (eV)
  ---------------------------------------------------
  alpha Z        PSCENC =       256.70245505
  Ewald energy   TEWEN  =     -9719.68632727
  -Hartree energ DENC   =     -3716.23569867
  -exchange      EXHF   =         0.00000000
  -V(xc)+E(xc)   XCENC  =       806.69729644
  PAW double counting   =     23615.98841542   -23975.08169315
  entropy T*S    EENTRO =        -0.00000000
  eigenvalues    EBANDS =     -3451.93635965
  atomic energy  EATOM  =     15932.49537490
  Solvation  Ediel_sol  =         0.00000000
  ---------------------------------------------------
  free energy    TOTEN  =      -251.05653694 eV

  energy without entropy =     -251.05653694  energy(sigma->0) =     -251.05653694


--------------------------------------------------------------------------------------------------------




--------------------------------------- Iteration      1(  18)  ---------------------------------------


    POTLOK:  cpu time    0.0801: real time    0.0800
    SETDIJ:  cpu time    0.0156: real time    0.0156
    EDDIAG:  cpu time    0.1975: real time    0.1982
  RMM-DIIS:  cpu time    1.1500: real time    1.1508
    ORTHCH:  cpu time    0.0352: real time    0.0352
       DOS:  cpu time    0.0008: real time    0.0007
    CHARGE:  cpu time    0.0466: real time    0.0466
    MIXING:  cpu time    0.0046: real time    0.0046
    --------------------------------------------
      LOOP:  cpu time    1.5305: real time    1.5318

 eigenvalue-minimisations  :   608
 total energy-change (2. order) :-0.6570921E-01  (-0.6544631E-01)
 number of electron     300.0000389 magnetization 
 augmentation part        1.0977344 magnetization 

 Broyden mixing:
  rms(total) = 0.20696E-01    rms(broyden)= 0.20005E-01
  rms(prec ) = 0.24017E-01
  weight for this iteration     100.00

 eigenvalues of (default mixing * dielectric matrix)
  average eigenvalue GAMMA=   1.7101
  2.7231  2.7231  1.5108  1.5108  1.0130  0.7800

 Free energy of the ion-electron system (eV)
  ---------------------------------------------------
  alpha Z        PSCENC =       256.70245505
  Ewald energy   TEWEN  =     -9719.68632727
  -Hartree energ DENC   =     -3720.44558598
  -exchange      EXHF   =         0.00000000
  -V(xc)+E(xc)   XCENC  =       807.00868020
  PAW double counting   =     23581.49861242   -23940.41135807
  entropy T*S    EENTRO =        -0.00000000
  eigenvalues    EBANDS =     -3448.28409741
  atomic energy  EATOM  =     15932.49537490
  Solvation  Ediel_sol  =         0.00000000
  ---------------------------------------------------
  free energy    TOTEN  =      -251.12224616 eV

  energy without entropy =     -251.12224616  energy(sigma->0) =     -251.12224616


--------------------------------------------------------------------------------------------------------




--------------------------------------- Iteration      1(  19)  ---------------------------------------


    POTLOK:  cpu time    0.0782: real time    0.0782
    SETDIJ:  cpu time    0.0158: real time    0.0158
    EDDIAG:  cpu time    0.1987: real time    0.1986
  RMM-DIIS:  cpu time    1.2161: real time    1.2173
    ORTHCH:  cpu time    0.0439: real time    0.0439
       DOS:  cpu time    0.0009: real time    0.0009
    CHARGE:  cpu time    0.0457: real time    0.0456
    MIXING:  cpu time    0.0040: real time    0.0040
    --------------------------------------------
      LOOP:  cpu time    1.6032: real time    1.6042

 eigenvalue-minimisations  :   623
 total energy-change (2. order) :-0.5234332E-01  (-0.5254193E-01)
 number of electron     300.0000388 magnetization 
 augmentation part        1.0011328 magnetization 

 Broyden mixing:
  rms(total) = 0.26684E-01    rms(broyden)= 0.26128E-01
  rms(prec ) = 0.28381E-01
  weight for this iteration     100.00

 eigenvalues of (default mixing * dielectric matrix)
  average eigenvalue GAMMA=   1.5069
  2.6950  2.6950  1.5183  1.5183  1.0020  0.8589  0.2607

 Free energy of the ion-electron system (eV)
  ---------------------------------------------------
  alpha Z        PSCENC =       256.70245505
  Ewald energy   TEWEN  =     -9719.68632727
  -Hartree energ DENC   =     -3721.96523687
  -exchange      EXHF   =         0.00000000
  -V(xc)+E(xc)   XCENC  =       807.10752960
  PAW double counting   =     23568.42417518   -23926.97740294
  entropy T*S    EENTRO =        -0.00000000
  eigenvalues    EBANDS =     -3447.27515713
  atomic energy  EATOM  =     15932.49537490
  Solvation  Ediel_sol  =         0.00000000
  ---------------------------------------------------
  free energy    TOTEN  =      -251.17458948 eV

  energy without entropy =     -251.17458948  energy(sigma->0) =     -251.17458948


--------------------------------------------------------------------------------------------------------




--------------------------------------- Iteration      1(  20)  ---------------------------------------


    POTLOK:  cpu time    0.0708: real time    0.0707
    SETDIJ:  cpu time    0.0145: real time    0.0145
    EDDIAG:  cpu time    0.1836: real time    0.1839
  RMM-DIIS:  cpu time    1.0729: real time    1.0731
    ORTHCH:  cpu time    0.0379: real time    0.0379
       DOS:  cpu time    0.0007: real time    0.0007
    CHARGE:  cpu time    0.0397: real time    0.0397
    MIXING:  cpu time    0.0043: real time    0.0042
    --------------------------------------------
      LOOP:  cpu time    1.4245: real time    1.4249

 eigenvalue-minimisations  :   635
 total energy-change (2. order) :-0.2037101E-01  (-0.2090892E-01)
 number of electron     300.0000388 magnetization 
 augmentation part        0.9553683 magnetization 

 Broyden mixing:
  rms(total) = 0.35423E-01    rms(broyden)= 0.35273E-01
  rms(prec ) = 0.38356E-01
  weight for this iteration     100.00

 eigenvalues of (default mixing * dielectric matrix)
  average eigenvalue GAMMA=   1.3944
  2.6607  2.6607  1.6722  1.3957  0.9856  0.9856  0.4100  0.3846

 Free energy of the ion-electron system (eV)
  ---------------------------------------------------
  alpha Z        PSCENC =       256.70245505
  Ewald energy   TEWEN  =     -9719.68632727
  -Hartree energ DENC   =     -3722.05039336
  -exchange      EXHF   =         0.00000000
  -V(xc)+E(xc)   XCENC  =       807.11350377
  PAW double counting   =     23568.49223093   -23927.00820591
  entropy T*S    EENTRO =        -0.00000000
  eigenvalues    EBANDS =     -3447.25359859
  atomic energy  EATOM  =     15932.49537490
  Solvation  Ediel_sol  =         0.00000000
  ---------------------------------------------------
  free energy    TOTEN  =      -251.19496049 eV

  energy without entropy =     -251.19496049  energy(sigma->0) =     -251.19496049


--------------------------------------------------------------------------------------------------------




--------------------------------------- Iteration      1(  21)  ---------------------------------------


    POTLOK:  cpu time    0.0672: real time    0.0671
    SETDIJ:  cpu time    0.0147: real time    0.0147
    EDDIAG:  cpu time    0.1801: real time    0.1807
  RMM-DIIS:  cpu time    1.0413: real time    1.0418
    ORTHCH:  cpu time    0.0359: real time    0.0359
       DOS:  cpu time    0.0008: real time    0.0007
    CHARGE:  cpu time    0.0401: real time    0.0401
    MIXING:  cpu time    0.0044: real time    0.0044
    --------------------------------------------
      LOOP:  cpu time    1.3845: real time    1.3855

 eigenvalue-minimisations  :   619
 total energy-change (2. order) :-0.1480871E-01  (-0.1653196E-01)
 number of electron     300.0000387 magnetization 
 augmentation part        0.9161413 magnetization 

 Broyden mixing:
  rms(total) = 0.50556E-01    rms(broyden)= 0.50485E-01
  rms(prec ) = 0.55215E-01
  weight for this iteration     100.00

 eigenvalues of (default mixing * dielectric matrix)
  average eigenvalue GAMMA=   1.3174
  2.6536  2.6536  1.7881  1.3181  1.0021  1.0021  0.5381  0.4502  0.4502

 Free energy of the ion-electron system (eV)
  ---------------------------------------------------
  alpha Z        PSCENC =       256.70245505
  Ewald energy   TEWEN  =     -9719.68632727
  -Hartree energ DENC   =     -3722.46332712
  -exchange      EXHF   =         0.00000000
  -V(xc)+E(xc)   XCENC  =       807.13321844
  PAW double counting   =     23569.23336301   -23927.76781358
  entropy T*S    EENTRO =        -0.00000000
  eigenvalues    EBANDS =     -3446.85671262
  atomic energy  EATOM  =     15932.49537490
  Solvation  Ediel_sol  =         0.00000000
  ---------------------------------------------------
  free energy    TOTEN  =      -251.20976920 eV

  energy without entropy =     -251.20976920  energy(sigma->0) =     -251.20976920


--------------------------------------------------------------------------------------------------------




--------------------------------------- Iteration      1(  22)  ---------------------------------------


    POTLOK:  cpu time    0.0677: real time    0.0677
    SETDIJ:  cpu time    0.0146: real time    0.0146
    EDDIAG:  cpu time    0.1797: real time    0.1796
  RMM-DIIS:  cpu time    1.0340: real time    1.0342
    ORTHCH:  cpu time    0.0376: real time    0.0376
       DOS:  cpu time    0.0007: real time    0.0007
    CHARGE:  cpu time    0.0399: real time    0.0398
    MIXING:  cpu time    0.0047: real time    0.0047
    --------------------------------------------
      LOOP:  cpu time    1.3789: real time    1.3789

 eigenvalue-minimisations  :   616
 total energy-change (2. order) :-0.7519132E-02  (-0.9515686E-02)
 number of electron     300.0000387 magnetization 
 augmentation part        0.8846768 magnetization 

 Broyden mixing:
  rms(total) = 0.54454E-01    rms(broyden)= 0.54420E-01
  rms(prec ) = 0.59207E-01
  weight for this iteration     100.00

 eigenvalues of (default mixing * dielectric matrix)
  average eigenvalue GAMMA=   1.3218
  2.6980  2.6980  1.8041  1.2152  1.0523  1.0523  0.7203  0.6978  0.6403  0.6403

 Free energy of the ion-electron system (eV)
  ---------------------------------------------------
  alpha Z        PSCENC =       256.70245505
  Ewald energy   TEWEN  =     -9719.68632727
  -Hartree energ DENC   =     -3722.51565422
  -exchange      EXHF   =         0.00000000
  -V(xc)+E(xc)   XCENC  =       807.13844021
  PAW double counting   =     23567.74456985   -23926.19181660
  entropy T*S    EENTRO =        -0.00000000
  eigenvalues    EBANDS =     -3446.90433025
  atomic energy  EATOM  =     15932.49537490
  Solvation  Ediel_sol  =         0.00000000
  ---------------------------------------------------
  free energy    TOTEN  =      -251.21728833 eV

  energy without entropy =     -251.21728833  energy(sigma->0) =     -251.21728833


--------------------------------------------------------------------------------------------------------




--------------------------------------- Iteration      1(  23)  ---------------------------------------


    POTLOK:  cpu time    0.0673: real time    0.0677
    SETDIJ:  cpu time    0.0146: real time    0.0146
    EDDIAG:  cpu time    0.1829: real time    0.1834
  RMM-DIIS:  cpu time    1.0629: real time    1.0619
    ORTHCH:  cpu time    0.0331: real time    0.0330
       DOS:  cpu time    0.0010: real time    0.0010
    CHARGE:  cpu time    0.0405: real time    0.0405
    MIXING:  cpu time    0.0051: real time    0.0051
    --------------------------------------------
      LOOP:  cpu time    1.4073: real time    1.4071

 eigenvalue-minimisations  :   618
 total energy-change (2. order) :-0.4473187E-02  (-0.6717002E-02)
 number of electron     300.0000386 magnetization 
 augmentation part        0.8618890 magnetization 

 Broyden mixing:
  rms(total) = 0.65334E-01    rms(broyden)= 0.65315E-01
  rms(prec ) = 0.70939E-01
  weight for this iteration     100.00

 eigenvalues of (default mixing * dielectric matrix)
  average eigenvalue GAMMA=   1.4405
  1.1664  3.0520  2.6356  1.1837  1.1837  1.5590  1.5590  1.0306  1.0306  0.7224
  0.7224

 Free energy of the ion-electron system (eV)
  ---------------------------------------------------
  alpha Z        PSCENC =       256.70245505
  Ewald energy   TEWEN  =     -9719.68632727
  -Hartree energ DENC   =     -3722.60563592
  -exchange      EXHF   =         0.00000000
  -V(xc)+E(xc)   XCENC  =       807.13173646
  PAW double counting   =     23562.51278659   -23921.03917736
  entropy T*S    EENTRO =        -0.00000000
  eigenvalues    EBANDS =     -3446.73297396
  atomic energy  EATOM  =     15932.49537490
  Solvation  Ediel_sol  =         0.00000000
  ---------------------------------------------------
  free energy    TOTEN  =      -251.22176151 eV

  energy without entropy =     -251.22176151  energy(sigma->0) =     -251.22176151


--------------------------------------------------------------------------------------------------------




--------------------------------------- Iteration      1(  24)  ---------------------------------------


    POTLOK:  cpu time    0.0697: real time    0.0696
    SETDIJ:  cpu time    0.0147: real time    0.0147
    EDDIAG:  cpu time    0.1870: real time    0.1869
  RMM-DIIS:  cpu time    1.2705: real time    1.2697
    ORTHCH:  cpu time    0.0298: real time    0.0297
       DOS:  cpu time    0.0010: real time    0.0010
    CHARGE:  cpu time    0.0484: real time    0.0484
    MIXING:  cpu time    0.0050: real time    0.0050
    --------------------------------------------
      LOOP:  cpu time    1.6261: real time    1.6251

 eigenvalue-minimisations  :   606
 total energy-change (2. order) : 0.2654982E-02  (-0.7169783E-02)
 number of electron     300.0000386 magnetization 
 augmentation part        0.8496138 magnetization 

 Broyden mixing:
  rms(total) = 0.12462E+00    rms(broyden)= 0.12461E+00
  rms(prec ) = 0.13592E+00
  weight for this iteration     100.00

 eigenvalues of (default mixing * dielectric matrix)
  average eigenvalue GAMMA=   1.3754
  1.2981  2.9637  2.5454  1.4336  1.4336  1.4807  1.4807  0.9780  0.9780  0.7958
  0.5587  0.5587

 Free energy of the ion-electron system (eV)
  ---------------------------------------------------
  alpha Z        PSCENC =       256.70245505
  Ewald energy   TEWEN  =     -9719.68632727
  -Hartree energ DENC   =     -3722.12911098
  -exchange      EXHF   =         0.00000000
  -V(xc)+E(xc)   XCENC  =       807.02319622
  PAW double counting   =     23561.24921556   -23920.95661705
  entropy T*S    EENTRO =        -0.00000000
  eigenvalues    EBANDS =     -3445.91729296
  atomic energy  EATOM  =     15932.49537490
  Solvation  Ediel_sol  =         0.00000000
  ---------------------------------------------------
  free energy    TOTEN  =      -251.21910653 eV

  energy without entropy =     -251.21910653  energy(sigma->0) =     -251.21910653


--------------------------------------------------------------------------------------------------------




--------------------------------------- Iteration      1(  25)  ---------------------------------------


    POTLOK:  cpu time    0.0698: real time    0.0697
    SETDIJ:  cpu time    0.0146: real time    0.0146
    EDDIAG:  cpu time    0.1785: real time    0.1783
  RMM-DIIS:  cpu time    1.0880: real time    1.0871
    ORTHCH:  cpu time    0.0259: real time    0.0260
       DOS:  cpu time    0.0010: real time    0.0010
    CHARGE:  cpu time    0.0407: real time    0.0406
[...]
      direct lattice vectors                 reciprocal lattice vectors
    10.250000000  0.000000000  0.000000000     0.097560976  0.000000000  0.000000000
     0.000000000 10.250000000  0.000000000     0.000000000  0.097560976  0.000000000
     0.000000000  0.000000000 12.350000000     0.000000000  0.000000000  0.080971660

  length of vectors
    10.250000000 10.250000000 12.350000000     0.097560976  0.097560976  0.080971660


 FORCES acting on ions
    electron-ion (+dipol)            ewald-force                    non-local-force                 convergence-correction
 -----------------------------------------------------------------------------------------------
   0.127E+00 0.733E+01 0.263E+02   0.136E+01 -.677E+01 -.254E+02   -.206E+01 0.284E+00 -.178E+01   -.159E-03 0.353E-03 0.405E-04
   0.303E+01 -.315E+02 0.343E+02   -.240E+01 0.317E+02 -.348E+02   -.622E+00 -.484E+00 0.275E+00   -.172E-03 -.156E-03 -.420E-04
   0.349E+02 0.459E+02 0.230E+02   -.344E+02 -.447E+02 -.217E+02   -.592E+00 -.791E+00 -.147E+01   0.180E-03 0.607E-03 -.350E-03
   -.400E+00 -.533E+02 -.656E+01   -.164E+00 0.512E+02 0.687E+01   0.633E+00 0.199E+01 -.354E+00   0.290E-03 0.209E-03 -.155E-03
   0.397E+02 0.204E+02 -.375E+02   -.389E+02 -.200E+02 0.375E+02   -.112E+01 -.228E+00 0.587E+00   0.171E-03 0.241E-03 0.394E-03
   -.223E+02 -.382E+02 -.123E+01   0.210E+02 0.377E+02 0.385E+00   0.165E+01 0.836E+00 0.780E+00   0.183E-03 -.514E-04 -.123E-03
   -.115E+01 -.986E+01 -.321E+02   0.128E+01 0.105E+02 0.307E+02   0.584E+00 -.740E+00 0.104E+01   0.393E-03 -.175E-03 -.257E-03
   0.110E+02 0.245E+02 -.403E+02   -.109E+02 -.235E+02 0.405E+02   -.279E+00 -.801E+00 -.158E+00   0.127E-03 -.491E-04 -.153E-03
   0.184E+02 -.150E+02 0.133E+02   -.195E+02 0.148E+02 -.139E+02   0.147E+01 0.739E+00 0.588E+00   0.791E-04 -.379E-04 -.130E-03
   -.147E+02 0.267E+01 -.409E+01   0.139E+02 -.325E+01 0.455E+01   0.891E+00 -.228E-01 -.314E+00   -.167E-03 -.966E-04 -.260E-04
   -.194E+02 0.302E+02 0.236E+00   0.180E+02 -.285E+02 -.650E+00   0.135E+01 -.213E+01 0.786E+00   0.101E-03 -.893E-04 -.510E-04
   0.192E+01 -.152E+02 -.569E+01   -.237E+01 0.148E+02 0.526E+01   -.334E+00 0.710E-01 0.364E+00   -.587E-03 -.242E-03 0.757E-04
   -.308E+02 -.158E+01 0.278E+02   0.304E+02 0.481E+00 -.286E+02   0.984E+00 0.108E+01 0.441E+00   -.116E-03 -.847E-05 0.979E-04
   0.124E+00 -.216E+01 -.952E+01   -.122E+01 0.210E+01 0.950E+01   0.570E+00 0.225E-01 0.127E+00   -.152E-03 -.184E-04 -.119E-03
   0.240E+02 -.172E+02 -.102E+02   -.222E+02 0.168E+02 0.955E+01   -.212E+01 0.959E+00 0.594E+00   0.286E-03 0.208E-04 -.251E-04
   -.556E+01 0.313E+02 -.464E+01   0.578E+01 -.307E+02 0.403E+01   -.303E+00 -.980E+00 0.142E+01   -.265E-03 0.521E-04 0.824E-04
   0.374E+02 -.578E+01 0.754E+01   -.356E+02 0.528E+01 -.655E+01   -.239E+01 0.121E+01 -.142E+01   -.130E-03 -.180E-03 0.398E-04
   -.787E+01 0.887E+01 0.208E+02   0.717E+01 -.897E+01 -.202E+02   0.438E+00 0.156E-01 -.464E+00   -.542E-04 -.149E-03 0.516E-04
   0.310E+02 0.159E+02 -.738E+01   -.302E+02 -.158E+02 0.774E+01   -.123E+01 -.150E+00 -.185E+00   0.460E-03 -.109E-03 0.110E-03
   -.486E+00 -.369E+02 -.945E+01   0.517E+00 0.356E+02 0.882E+01   -.318E+00 0.132E+01 0.669E-01   -.251E-04 -.134E-03 -.235E-03
   0.183E+02 -.115E+02 -.151E+02   -.168E+02 0.118E+02 0.134E+02   -.111E+01 -.498E+00 0.201E+01   -.121E-03 0.517E-04 0.339E-04
   0.492E+01 -.264E+02 -.264E+01   -.527E+01 0.263E+02 0.303E+01   0.887E+00 0.452E+00 -.391E+00   0.228E-03 0.193E-03 -.367E-03
   -.268E+01 0.315E+02 -.111E+02   0.251E+01 -.315E+02 0.115E+02   -.430E+00 -.937E+00 -.286E+00   0.112E-04 -.594E-04 0.292E-05
   -.306E+01 0.492E+02 -.194E+02   0.241E+01 -.493E+02 0.195E+02   -.707E-01 -.172E-03 0.849E-01   -.271E-03 0.306E-03 -.350E-04
   -.691E+00 0.346E+02 -.317E+02   0.171E+01 -.343E+02 0.316E+02   -.737E+00 -.153E+00 0.631E+00   -.130E-03 0.118E-03 0.219E-04
   0.153E+02 -.171E+02 0.696E+01   -.146E+02 0.169E+02 -.623E+01   -.122E+01 0.242E+00 -.732E+00   -.254E-03 -.383E-03 0.816E-04
   -.257E+02 0.110E+01 -.462E+02   0.268E+02 -.167E+01 0.456E+02   -.129E+01 0.168E+01 0.187E+01   -.295E-03 0.272E-04 0.226E-03
   -.271E+02 0.328E+02 0.435E+02   0.271E+02 -.326E+02 -.417E+02   -.521E+00 -.764E+00 -.329E+01   -.689E-05 0.337E-03 0.130E-03
   0.322E+01 0.196E+02 0.121E+02   -.457E+01 -.196E+02 -.119E+02   0.140E+01 0.393E+00 0.159E+00   0.159E-03 0.695E-04 0.841E-04
   -.301E+02 -.241E+02 -.413E+01   0.284E+02 0.244E+02 0.398E+01   0.135E+01 -.273E+00 0.136E+00   -.179E-03 -.354E-03 -.828E-04
   -.752E+01 -.452E+02 0.357E+02   0.484E+00 0.499E+02 -.429E+02   0.673E+01 -.584E+01 0.856E+01   0.729E-03 -.576E-03 0.625E-03
   -.481E+02 0.526E+02 0.124E+01   0.508E+02 -.640E+02 -.142E+01   -.397E+01 0.115E+02 0.456E+00   0.465E-03 0.486E-03 -.568E-03
   0.268E+01 -.520E+02 -.287E+02   -.686E+01 0.594E+02 0.286E+02   0.687E+01 -.441E+01 0.202E+01   -.453E-03 -.359E-03 -.332E-03
   -.283E+02 -.261E+02 0.141E+01   0.324E+02 0.198E+02 0.567E+01   -.882E+00 0.677E+01 -.711E+01   0.260E-03 -.162E-03 0.314E-03
   0.398E+02 -.937E+01 -.222E+02   -.370E+02 -.263E+00 0.272E+02   -.400E+01 0.101E+02 -.287E+01   0.155E-04 -.181E-03 -.244E-03
   0.110E+03 -.132E+02 0.148E+02   -.119E+03 0.129E+02 -.143E+02   0.880E+01 -.216E+00 -.965E+00   0.699E-03 0.463E-03 -.241E-03
   0.833E+02 0.708E+02 -.113E+03   -.843E+02 -.732E+02 0.119E+03   0.299E+00 -.602E+00 -.266E+01   0.157E-02 -.302E-03 0.163E-03
   0.545E+02 0.242E+02 -.238E+02   -.586E+02 -.298E+02 0.337E+02   0.494E+00 0.695E+01 -.498E+01   0.404E-03 0.987E-04 -.273E-03
   -.212E+02 -.770E+02 0.715E+02   0.221E+02 0.806E+02 -.721E+02   -.151E+01 -.285E+01 -.594E+00   0.121E-03 -.389E-03 0.435E-03
   0.914E+02 -.685E+02 0.339E+02   -.933E+02 0.716E+02 -.336E+02   0.175E+01 -.432E+01 -.582E+00   -.575E-04 -.255E-03 0.204E-04
   -.824E+02 0.284E+01 0.504E+02   0.897E+02 -.368E+00 -.524E+02   -.704E+01 -.213E+01 0.216E+01   0.107E-03 0.331E-03 -.104E-03
   -.378E+02 -.354E+02 -.362E+02   0.417E+02 0.352E+02 0.372E+02   -.580E+01 0.339E+00 -.679E+00   -.257E-03 -.234E-03 -.394E-03
   -.286E+02 -.213E+02 -.452E+02   0.293E+02 0.241E+02 0.456E+02   0.900E-01 -.307E+01 -.224E+00   0.671E-03 -.260E-03 -.247E-03
   -.786E+02 -.606E+02 -.361E+02   0.851E+02 0.642E+02 0.347E+02   -.794E+01 -.291E+01 0.158E+00   -.255E-03 -.604E-03 -.332E-04
   0.106E+02 -.937E+01 0.605E+02   -.109E+02 0.125E+02 -.637E+02   0.480E+00 -.342E+01 0.284E+01   0.262E-03 -.265E-03 -.554E-04
   0.168E+02 0.125E+02 -.135E+02   -.172E+02 -.118E+02 0.127E+02   0.124E+01 -.182E+01 0.196E+01   -.374E-03 0.829E-04 -.146E-03
   -.122E+02 -.831E+02 -.263E+02   0.125E+02 0.884E+02 0.306E+02   -.478E+00 -.466E+01 -.492E+01   -.201E-03 -.116E-02 0.569E-03
   -.368E+02 0.136E+03 0.604E+02   0.364E+02 -.137E+03 -.615E+02   0.939E-01 -.173E+01 -.105E+00   -.837E-03 0.578E-03 0.863E-04
   0.214E+02 -.758E+02 0.587E+02   -.220E+02 0.763E+02 -.620E+02   -.531E-01 0.326E+00 0.337E+00   -.752E-03 -.674E-03 0.581E-03
   0.412E+02 0.126E+03 -.886E+02   -.454E+02 -.130E+03 0.920E+02   0.460E+01 0.296E+01 -.282E+01   -.929E-03 0.429E-03 0.304E-04
   -.723E+02 0.490E+02 -.226E+02   0.711E+02 -.486E+02 0.223E+02   0.270E+01 -.956E+00 0.931E+00   -.792E-03 0.738E-03 -.113E-04
   0.479E+02 0.668E+02 0.672E+01   -.536E+02 -.722E+02 -.600E+01   0.506E+01 0.561E+01 -.362E+00   -.128E-03 -.585E-05 -.229E-04
   0.496E+02 0.163E+02 -.253E+02   -.508E+02 -.159E+02 0.261E+02   0.168E+01 -.697E+00 -.115E+01   -.103E-03 0.387E-03 0.220E-03
   -.488E+02 -.153E+02 -.121E+02   0.487E+02 0.159E+02 0.128E+02   0.590E+00 -.156E+01 -.117E+01   -.253E-03 -.749E-03 0.390E-03
   0.734E+01 0.246E+02 0.773E+02   -.682E+01 -.302E+02 -.808E+02   -.244E+00 0.600E+01 0.316E+01   -.324E-03 -.461E-03 0.546E-03
   0.947E+01 -.765E+02 -.138E+02   -.109E+02 0.800E+02 0.146E+02   0.210E+01 -.380E+01 -.215E+01   0.851E-03 0.835E-04 -.228E-03
   0.146E+02 -.566E+02 0.136E+02   -.108E+02 0.607E+02 -.155E+02   -.384E+01 -.432E+01 0.169E+01   0.582E-03 0.381E-03 0.316E-04
   -.799E+02 0.359E+02 0.132E+03   0.840E+02 -.375E+02 -.136E+03   -.898E+00 0.662E+00 -.682E+00   -.127E-03 0.314E-03 -.347E-03
   0.452E+02 0.285E+02 0.885E+02   -.449E+02 -.305E+02 -.970E+02   0.185E+00 0.447E+01 0.648E+01   0.152E-02 0.632E-04 0.483E-03
   -.109E+02 0.804E+02 0.802E+00   0.102E+02 -.844E+02 0.190E+01   0.240E+01 0.374E+01 -.375E+01   0.111E-03 0.200E-03 0.316E-03
   0.447E+01 -.305E+02 0.179E+02   -.452E+01 0.300E+02 -.180E+02   0.384E+00 0.898E+00 0.497E+00   -.301E-03 -.263E-03 -.506E-04
   -.134E+01 -.424E+00 -.344E+02   0.156E+01 -.314E-01 0.349E+02   -.533E+00 0.120E+01 -.478E+00   0.323E-03 0.247E-03 -.712E-04
   0.273E+02 -.318E+02 -.498E+02   -.263E+02 0.311E+02 0.493E+02   -.195E+01 0.912E+00 0.164E+01   -.157E-04 -.390E-03 -.586E-03
   -.122E+03 0.837E+02 -.140E+02   0.124E+03 -.832E+02 0.140E+02   -.142E+01 -.127E+01 -.688E+00   0.724E-04 -.284E-03 -.173E-03
   -.136E+02 -.881E+02 -.326E+02   0.141E+02 0.873E+02 0.320E+02   -.355E+00 0.176E+01 0.111E+01   -.123E-03 -.754E-03 -.127E-02
 -----------------------------------------------------------------------------------------------
   -.106E+01 -.160E+02 0.385E+01   0.121E-12 0.568E-13 -.853E-13   0.107E+01 0.160E+02 -.384E+01   0.206E-02 -.315E-02 -.126E-02
 
 
 POSITION                                       TOTAL-FORCE (eV/Angst)
 -----------------------------------------------------------------------------------
      6.52389      8.97094     12.16980        -0.580026      0.845828     -0.915345
      7.37192      6.18397      7.64390         0.011140     -0.283782     -0.280647
      2.32744      1.25623      0.75487        -0.005385      0.506156     -0.103606
      1.34096      7.66505      2.60353         0.068404     -0.167243     -0.046383
      2.89028      1.89550      3.84548        -0.336218      0.166499      0.561239
      1.76026      0.50484      8.23563         0.350732      0.365124     -0.064540
      7.24627      5.89237      2.91946         0.717611     -0.077760     -0.432744
      5.34518      0.61571      3.87497        -0.225729      0.229509      0.063932
     10.01220      9.40286      7.38660         0.379482      0.520020      0.001545
      9.34428      4.20507      2.71938         0.092771     -0.603367      0.138403
      4.35844      9.98592      6.44496         0.009277     -0.428477      0.371751
      9.41214      6.00886      0.45881        -0.790299     -0.298041     -0.066843
      0.04203      3.78307      8.88428         0.611666     -0.017498     -0.340827
      3.12906      5.57635      7.33061        -0.526196     -0.031003      0.116154
      6.19337      2.15272      0.05267        -0.248360      0.535030     -0.027030
      8.56098      2.64522     10.48110        -0.082246     -0.425850      0.808755
      6.63598      5.45438     12.11170        -0.602934      0.714912     -0.427756
      4.90090      4.19901      5.29168        -0.271659     -0.090087      0.057520
      5.07038      6.93368      1.62167        -0.382432     -0.127095      0.180194
      2.53395      7.84053     10.92540        -0.287950      0.090548     -0.562737
      6.60642      2.91312      2.64560         0.389902     -0.272049      0.289818
      9.66941      6.78991      8.94884         0.540385      0.345541      0.002355
      0.16603      4.07118      5.66670        -0.606610     -0.999820      0.142940
      9.46829      2.18466      0.56085        -0.726733     -0.113244      0.122975
      7.26677      1.42462      5.46844         0.281749      0.205502      0.516863
      5.68375      6.29724      9.65865        -0.477277      0.057785     -0.004526
      6.68349      8.88291      2.37404        -0.192237      1.114908      1.265273
      7.07454      0.75386     10.03320        -0.468602     -0.544986     -1.443329
      5.90571      2.51885      7.59086         0.050471      0.373204      0.420856
      9.28934      9.04406      0.13065        -0.390303      0.024675     -0.010792
      3.08116      6.44505      4.06198        -0.312058     -1.134403      1.321837
      2.93166      4.69739     10.93720        -1.278270      0.098693      0.273740
      0.82418      4.30454     12.05710         2.695957      2.960787      1.960750
      1.68031      7.21653      6.19328         3.191167      0.532991     -0.025911
     10.08420      6.36272      5.60924        -1.238764      0.517579      2.092732
      3.86904      1.20119     10.13180         0.078405     -0.563677     -0.392032
      4.09232      9.22664      2.75977        -0.643737     -3.063681      2.678271
      4.71156      9.38985     10.04540        -3.575194      1.348347      4.957569
      2.15071      9.23464      6.26114        -0.625492      0.728226     -1.152685
      8.76230      7.80621      6.56342        -0.149366     -1.246699     -0.249115
      0.25158      2.03473      7.16268         0.311816      0.348163      0.190588
      5.32488      6.21107      4.04109        -1.872105      0.173969      0.277684
      4.08009      6.34332     11.71190         0.753502     -0.294345      0.152168
      2.14124      3.72713      1.61726        -1.441136      0.662159     -1.320351
      1.83277      5.64737      9.37149         0.197182     -0.328918     -0.297386
      7.67735      4.07293      0.94461         0.774774     -1.082656      1.170103
      7.94896      5.61578     10.12750        -0.204494      0.652109     -0.586050
      0.61739      2.72271     11.00220        -0.278006     -3.289208     -1.255524
      9.82673      6.32329      3.65788        -0.618957      0.768729     -2.886433
      0.75807      2.35121      2.33241         0.414206     -0.675611      0.648505
      7.78186      0.65899     12.00390         1.522671     -0.568857      0.610693
      8.65726      1.07288      7.49045        -0.612814      0.228813      0.349667
      4.65421      1.85792      5.75422         0.490882     -0.225389     -0.388565
      7.38330      7.44110      1.03890         0.477597     -0.931716     -0.446506
      7.96632      3.91678      8.81955         0.271826      0.465681     -0.307891
      4.41800      1.85963      2.00025         0.663750     -0.228469     -1.333844
      5.45123      2.52902      9.97143         0.002878     -0.166492     -0.180680
      5.86894      8.84061      8.72976         3.275754     -0.949360     -4.334606
      4.32503     10.08050      1.07198         0.479907      2.420405     -2.075774
      2.28855      4.67849      5.20857         1.699342     -0.259385     -1.044111
      5.27347      5.10647      7.39870         0.327903      0.380036      0.418768
      8.28262      3.33483      4.64841        -0.311399      0.748881     -0.031083
      1.26278      8.78922      9.14390        -0.907689      0.147427      1.114897
      7.51588      0.53693      3.50607         0.040931     -0.803570     -0.759674
      0.82372      7.46173      0.19420         0.096639      1.014502      0.516786
 -----------------------------------------------------------------------------------
    total drift:                                0.010296     -0.014144      0.007425


--------------------------------------------------------------------------------------------------------



  FREE ENERGIE OF THE ION-ELECTRON SYSTEM (eV)
  ---------------------------------------------------
  free  energy   TOTEN  =      -251.23713225 eV

  energy  without entropy=     -251.23713225  energy(sigma->0) =     -251.23713225
 


--------------------------------------------------------------------------------------------------------


    POTLOK:  cpu time    0.0955: real time    0.0955


--------------------------------------------------------------------------------------------------------




--------------------------------------------------------------------------------------------------------


     LOOP+:  cpu time   62.1461: real time   62.1915
    4ORBIT:  cpu time    0.0000: real time    0.0000
 


 total charge     
 
# of ion       s       p       d       tot
------------------------------------------
    1        2.029   0.069   0.000   2.098
    2        2.016   0.047   0.000   2.062
    3        2.008   0.042   0.000   2.050
    4        2.009   0.036   0.000   2.045
    5        2.009   0.037   0.000   2.046
    6        2.018   0.050   0.000   2.069
    7        2.017   0.051   0.000   2.067
    8        2.031   0.075   0.000   2.105
    9        2.025   0.063   0.000   2.088
   10        2.021   0.057   0.000   2.078
   11        2.020   0.049   0.000   2.069
   12        2.017   0.050   0.000   2.067
   13        2.022   0.058   0.000   2.080
   14        2.023   0.061   0.000   2.084
   15        2.020   0.054   0.000   2.074
   16        2.027   0.064   0.000   2.091
   17        2.029   0.072   0.000   2.101
   18        2.018   0.051   0.000   2.068
   19        2.016   0.048   0.000   2.064
   20        2.015   0.047   0.000   2.062
   21        2.016   0.046   0.000   2.062
   22        2.011   0.038   0.000   2.049
   23        2.022   0.061   0.000   2.083
   24        2.022   0.058   0.000   2.080
   25        2.023   0.059   0.000   2.082
   26        2.014   0.042   0.000   2.056
   27        2.029   0.065   0.000   2.094
   28        2.029   0.067   0.000   2.097
   29        2.017   0.047   0.000   2.063
   30        2.012   0.039   0.000   2.051
   31        1.102   1.230   0.000   2.332
   32        1.120   1.257   0.000   2.377
   33        1.096   1.358   0.000   2.454
   34        1.088   1.353   0.000   2.441
   35        1.060   1.422   0.000   2.483
   36        1.367   2.248   0.000   3.615
   37        1.348   2.433   0.000   3.781
   38        1.354   2.364   0.000   3.718
   39        1.332   2.432   0.000   3.764
   40        1.341   2.399   0.000   3.740
   41        1.331   2.372   0.000   3.703
   42        1.334   2.385   0.000   3.719
   43        1.328   2.428   0.000   3.757
   44        1.374   2.264   0.000   3.638
   45        1.336   2.407   0.000   3.743
   46        1.313   2.485   0.000   3.797
   47        1.332   2.386   0.000   3.718
   48        1.340   2.494   0.000   3.834
   49        1.327   2.489   0.000   3.815
   50        1.340   2.378   0.000   3.719
   51        1.308   2.517   0.000   3.825
   52        1.335   2.353   0.000   3.688
   53        1.311   2.468   0.000   3.779
   54        1.310   2.528   0.000   3.838
   55        1.356   2.358   0.000   3.714
   56        1.352   2.370   0.000   3.722
   57        1.356   2.349   0.000   3.705
   58        1.345   2.441   0.000   3.787
   59        1.361   2.310   0.000   3.671
   60        1.341   2.377   0.000   3.718
   61        1.590   3.606   0.000   5.197
   62        1.592   3.578   0.000   5.170
   63        1.595   3.587   0.000   5.182
   64        1.593   3.599   0.000   5.193
   65        1.592   3.591   0.000   5.183
--------------------------------------------------
tot        107.481  86.221   0.000 193.702
 

 total amount of memory used by VASP MPI-rank0    42204. kBytes
=======================================================================

   base      :      30000. kBytes
   nonl-proj :       5360. kBytes
   fftplans  :       1886. kBytes
   grid      :       3386. kBytes
   one-center:         27. kBytes
   wavefun   :       1545. kBytes
 
  
  
 General timing and accounting informations for this job:
 ========================================================
  
                  Total CPU time used (sec):       70.393
                            User time (sec):       66.229
                          System time (sec):        4.163
                         Elapsed time (sec):       71.560
  
                   Maximum memory used (kb):      159820.
                   Average memory used (kb):           0.
  
                          Minor page faults:        59865
                          Major page faults:            0
                 Voluntary context switches:         2553
