<?xml version="1.0" encoding="ISO-8859-1"?>
<modeling>
 <generator>
  <i name="program" type="string">vasp </i>
  <i name="version" type="string">5.4.4.18Apr17-6-g9f103f2a35  </i>
  <i name="subversion" type="string">(build Jan 22 2020 12:49:05) complex            parallel </i>
  <i name="platform" type="string">Bebop BDW IPS19.0.5 gcc9.2.0 </i>
  <i name="date" type="string">2022 09 29 </i>
  <i name="time" type="string">10:08:00 </i>
 </generator>
 <incar>
  <i type="string" name="SYSTEM"> LPSC</i>
  <i type="string" name="PREC">normal</i>
  <i type="int" name="IALGO">    48</i>
  <i type="int" name="ISPIN">     1</i>
  <i type="int" name="NELM">   100</i>
  <i type="int" name="IBRION">     2</i>
  <i name="EDIFF">      0.00000100</i>
  <i name="EDIFFG">     -0.01000000</i>
  <i type="int" name="NSW">     1</i>
  <i type="int" name="ISIF">     2</i>
  <i type="int" name="ISYM">     0</i>
  <i name="ENCUT">    500.00000000</i>
  <i type="int" name="ISMEAR">     0</i>
  <i name="SIGMA">      0.05000000</i>
  <i type="logical" name="LWAVE"> F  </i>
  <i type="logical" name="LCHARG"> F  </i>
  <i type="int" name="LORBIT">    11</i>
  <v type="int" name="KPOINT_BSE">    -1     0     0     0</v>
  <i type="int" name="NELM">   100</i>
 </incar>
 <structure name="primitive_cell" >
  <crystal>
   <varray name="basis" >
    <v>      10.25000000       0.00000000       0.00000000 </v>
    <v>       0.00000000      10.25000000       0.00000000 </v>
    <v>       0.00000000       0.00000000      12.35000000 </v>
   </varray>
   <i name="volume">   1297.52187500 </i>
   <varray name="rec_basis" >
    <v>       0.09756098       0.00000000       0.00000000 </v>
    <v>       0.00000000       0.09756098       0.00000000 </v>
    <v>       0.00000000       0.00000000       0.08097166 </v>
   </varray>
  </crystal>
  <varray name="positions" >
   <v>      -0.36352293      -0.12478634      -0.01459109 </v>
   <v>      -0.27967805      -0.27403902       0.08412146 </v>
   <v>      -0.24079415       0.06429141      -0.02802429 </v>
   <v>      -0.34795220      -0.13337463       0.19222996 </v>
   <v>       0.42195415      -0.01653659       0.08680000 </v>
   <v>      -0.09372293      -0.11765268       0.01057870 </v>
   <v>       0.45966439      -0.08391707      -0.18660729 </v>
   <v>      -0.30980098       0.07354761      -0.18759514 </v>
   <v>       0.49467122      -0.32354341       0.13130931 </v>
   <v>      -0.39576878       0.21002146       0.00426497 </v>
   <v>      -0.42742049      -0.13750146      -0.29313684 </v>
   <v>      -0.35258732      -0.46786537      -0.01929555 </v>
   <v>       0.39805756      -0.38113951      -0.05166802 </v>
   <v>      -0.44548780      -0.38563512      -0.21792308 </v>
   <v>       0.39925073      -0.09984000       0.22346316 </v>
   <v>       0.37746732       0.11718927      -0.17961134 </v>
   <v>      -0.22449171      -0.45211902      -0.17995951 </v>
   <v>      -0.08174244      -0.41376976       0.03715061 </v>
   <v>      -0.26674341       0.05238302       0.28389231 </v>
   <v>       0.24721463      -0.23507024      -0.11535223 </v>
   <v>       0.43102439       0.18142732       0.16196356 </v>
   <v>      -0.29304683      -0.42513463       0.23639352 </v>
   <v>      -0.46817268       0.24673366      -0.19259676 </v>
   <v>      -0.07626439       0.21313756       0.04541255 </v>
   <v>      -0.47851902       0.06006917       0.31376275 </v>
   <v>      -0.16478244       0.25807024      -0.15132794 </v>
   <v>       0.08036312      -0.27202634       0.01572470 </v>
   <v>       0.22706732       0.12255902       0.06112300 </v>
   <v>      -0.05664293      -0.33756976      -0.27539757 </v>
   <v>      -0.35547122       0.28420683       0.21421862 </v>
   <v>      -0.25099024       0.39735902       0.07648704 </v>
   <v>      -0.48049951      -0.39404195       0.32721377 </v>
   <v>      -0.28078829      -0.39668585      -0.38106073 </v>
   <v>      -0.15538927       0.10467122      -0.39348583 </v>
   <v>      -0.04129463      -0.38309366       0.29618462 </v>
   <v>       0.28601561       0.45828195      -0.11439676 </v>
   <v>       0.12319805      -0.14251512      -0.25960324 </v>
   <v>       0.13082537      -0.25219024       0.21081215 </v>
   <v>      -0.02320000      -0.08264780      -0.40189474 </v>
   <v>      -0.42383317       0.24574146      -0.38535547 </v>
   <v>       0.30060098      -0.37121463       0.32890526 </v>
   <v>       0.06023327       0.26563024      -0.10913360 </v>
   <v>      -0.14514146      -0.23841854      -0.46854899 </v>
   <v>       0.42521366      -0.02576390      -0.47814089 </v>
   <v>      -0.22279805       0.38212488      -0.28586640 </v>
   <v>      -0.08836293       0.41025073       0.22019271 </v>
   <v>      -0.48551512       0.49819220      -0.40091498 </v>
   <v>       0.28197854       0.18492683       0.31137490 </v>
   <v>       0.07395854       0.22938634       0.18885911 </v>
   <v>      -0.29104683       0.13898732       0.44278866 </v>
   <v>       0.17880683      -0.44903707      -0.24117490 </v>
   <v>       0.17173268       0.04925307      -0.33314737 </v>
   <v>       0.08040771       0.41995512      -0.02371660 </v>
   <v>       0.30527415      -0.45596585      -0.40642834 </v>
   <v>       0.20890146       0.36362244       0.13095223 </v>
   <v>      -0.19193951       0.32534927       0.37638947 </v>
   <v>       0.45406927       0.18126049       0.46592874 </v>
   <v>       0.00410039       0.36908000      -0.28062510 </v>
   <v>       0.02454410       0.19851024      -0.42002591 </v>
   <v>      -0.01617561      -0.37924683       0.45418947 </v>
   <v>       0.20982537      -0.09905951      -0.49302510 </v>
   <v>       0.47813659       0.40965951       0.42847611 </v>
   <v>       0.16393268      -0.29594829      -0.49851984 </v>
   <v>       0.22327317       0.45643805       0.42174656 </v>
   <v>       0.01619824       0.39718829       0.45884211 </v>
  </varray>
 </structure>
 <varray name="primitive_index" >
  <v type="int" >        1 </v>
  <v type="int" >       54 </v>
  <v type="int" >       51 </v>
  <v type="int" >       27 </v>
  <v type="int" >       59 </v>
  <v type="int" >       30 </v>
  <v type="int" >       38 </v>
  <v type="int" >       28 </v>
  <v type="int" >       19 </v>
  <v type="int" >       15 </v>
  <v type="int" >       58 </v>
  <v type="int" >       17 </v>
  <v type="int" >       43 </v>
  <v type="int" >       26 </v>
  <v type="int" >       37 </v>
  <v type="int" >       36 </v>
  <v type="int" >       47 </v>
  <v type="int" >       12 </v>
  <v type="int" >       64 </v>
  <v type="int" >       20 </v>
  <v type="int" >       56 </v>
  <v type="int" >        7 </v>
  <v type="int" >       57 </v>
  <v type="int" >       24 </v>
  <v type="int" >        8 </v>
  <v type="int" >       16 </v>
  <v type="int" >       65 </v>
  <v type="int" >        3 </v>
  <v type="int" >       22 </v>
  <v type="int" >       21 </v>
  <v type="int" >       46 </v>
  <v type="int" >       42 </v>
  <v type="int" >        2 </v>
  <v type="int" >       52 </v>
  <v type="int" >       49 </v>
  <v type="int" >       32 </v>
  <v type="int" >       63 </v>
  <v type="int" >        4 </v>
  <v type="int" >        9 </v>
  <v type="int" >       29 </v>
  <v type="int" >       31 </v>
  <v type="int" >       48 </v>
  <v type="int" >       40 </v>
  <v type="int" >       11 </v>
  <v type="int" >       55 </v>
  <v type="int" >       10 </v>
  <v type="int" >       61 </v>
  <v type="int" >        5 </v>
  <v type="int" >       50 </v>
  <v type="int" >       25 </v>
  <v type="int" >       45 </v>
  <v type="int" >        6 </v>
  <v type="int" >       33 </v>
  <v type="int" >       14 </v>
  <v type="int" >       44 </v>
  <v type="int" >       62 </v>
  <v type="int" >       53 </v>
  <v type="int" >       13 </v>
  <v type="int" >       41 </v>
  <v type="int" >       35 </v>
  <v type="int" >       39 </v>
  <v type="int" >       18 </v>
  <v type="int" >       34 </v>
  <v type="int" >       60 </v>
  <v type="int" >       23 </v>
 </varray>
 <kpoints>
  <generation param="Gamma">
   <v type="int" name="divisions">       1        1        1 </v>
   <v name="usershift">      0.00000000       0.00000000       0.00000000 </v>
   <v name="genvec1">      1.00000000       0.00000000       0.00000000 </v>
   <v name="genvec2">      0.00000000       1.00000000       0.00000000 </v>
   <v name="genvec3">      0.00000000       0.00000000       1.00000000 </v>
   <v name="shift">      0.00000000       0.00000000       0.00000000 </v>
  </generation>
  <varray name="kpointlist" >
   <v>       0.00000000       0.00000000       0.00000000 </v>
  </varray>
  <varray name="weights" >
   <v>       1.00000000 </v>
  </varray>
 </kpoints>
 <parameters>
  <separator name="general" >
   <i type="string" name="SYSTEM">LPSC</i>
   <i type="logical" name="LCOMPAT"> F  </i>
  </separator>
  <separator name="electronic" >
   <i type="string" name="PREC">normal</i>
   <i name="ENMAX">    500.00000000</i>
   <i name="ENAUG">    628.94500000</i>
   <i name="EDIFF">      0.00000100</i>
   <i type="int" name="IALGO">    48</i>
   <i type="int" name="IWAVPR">    11</i>
   <i type="int" name="NBANDS">   184</i>
   <i name="NELECT">    300.00000000</i>
   <i type="int" name="TURBO">     0</i>
   <i type="int" name="IRESTART">     0</i>
   <i type="int" name="NREBOOT">     0</i>
   <i type="int" name="NMIN">     0</i>
   <i name="EREF">      0.00000000</i>
   <separator name="electronic smearing" >
    <i type="int" name="ISMEAR">     0</i>
    <i name="SIGMA">      0.05000000</i>
    <i name="KSPACING">      0.50000000</i>
    <i type="logical" name="KGAMMA"> T  </i>
   </separator>
   <separator name="electronic projectors" >
    <i type="logical" name="LREAL"> F  </i>
    <v name="ROPT">      0.00000000      0.00000000      0.00000000      0.00000000</v>
    <i type="int" name="LMAXPAW">  -100</i>
    <i type="int" name="LMAXMIX">     2</i>
    <i type="logical" name="NLSPLINE"> F  </i>
   </separator>
   <separator name="electronic startup" >
    <i type="int" name="ISTART">     0</i>
    <i type="int" name="ICHARG">     2</i>
    <i type="int" name="INIWAV">     1</i>
   </separator>
   <separator name="electronic spin" >
    <i type="int" name="ISPIN">     1</i>
    <i type="logical" name="LNONCOLLINEAR"> F  </i>
    <v name="MAGMOM">      1.00000000      1.00000000      1.00000000      1.00000000      1.00000000      1.00000000      1.00000000      1.00000000      1.00000000      1.00000000      1.00000000      1.00000000      1.00000000      1.00000000      1.00000000      1.00000000      1.00000000      1.00000000      1.00000000      1.00000000
      1.00000000      1.00000000      1.00000000      1.00000000      1.00000000      1.00000000      1.00000000      1.00000000      1.00000000      1.00000000      1.00000000      1.00000000      1.00000000      1.00000000      1.00000000      1.00000000      1.00000000      1.00000000      1.00000000      1.00000000
      1.00000000      1.00000000      1.00000000      1.00000000      1.00000000      1.00000000      1.00000000      1.00000000      1.00000000      1.00000000      1.00000000      1.00000000      1.00000000      1.00000000      1.00000000      1.00000000      1.00000000      1.00000000      1.00000000      1.00000000
      1.00000000      1.00000000      1.00000000      1.00000000      1.00000000</v>
    <i name="NUPDOWN">     -1.00000000</i>
    <i type="logical" name="LSORBIT"> F  </i>
    <v name="SAXIS">      0.00000000      0.00000000      1.00000000</v>
    <i type="logical" name="LSPIRAL"> F  </i>
    <v name="QSPIRAL">      0.00000000      0.00000000      0.00000000</v>
    <i type="logical" name="LZEROZ"> F  </i>
   </separator>
   <separator name="electronic exchange-correlation" >
    <i type="logical" name="LASPH"> F  </i>
    <i type="logical" name="LMETAGGA"> F  </i>
   </separator>
   <separator name="electronic convergence" >
    <i type="int" name="NELM">   100</i>
    <i type="int" name="NELMDL">   -12</i>
    <i type="int" name="NELMIN">     2</i>
    <i name="ENINI">    500.00000000</i>
    <separator name="electronic convergence detail" >
     <i type="logical" name="LDIAG"> T  </i>
     <i type="logical" name="LSUBROT"> F  </i>
     <i name="WEIMIN">      0.00100000</i>
     <i name="EBREAK">      0.00000000</i>
     <i name="DEPER">      0.30000000</i>
     <i type="int" name="NRMM">     4</i>
     <i name="TIME">      0.40000000</i>
    </separator>
   </separator>
   <separator name="electronic mixer" >
    <i name="AMIX">      0.40000000</i>
    <i name="BMIX">      1.00000000</i>
    <i name="AMIN">      0.10000000</i>
    <i name="AMIX_MAG">      1.60000000</i>
    <i name="BMIX_MAG">      1.00000000</i>
    <separator name="electronic mixer details" >
     <i type="int" name="IMIX">     4</i>
     <i type="logical" name="MIXFIRST"> F  </i>
     <i type="int" name="MAXMIX">   -45</i>
     <i name="WC">    100.00000000</i>
     <i type="int" name="INIMIX">     1</i>
     <i type="int" name="MIXPRE">     1</i>
     <i type="int" name="MREMOVE">     5</i>
    </separator>
   </separator>
   <separator name="electronic dipolcorrection" >
    <i type="logical" name="LDIPOL"> F  </i>
    <i type="logical" name="LMONO"> F  </i>
    <i type="int" name="IDIPOL">     0</i>
    <i name="EPSILON">      1.00000000</i>
    <v name="DIPOL">   -100.00000000   -100.00000000   -100.00000000</v>
    <i name="EFIELD">      0.00000000</i>
   </separator>
  </separator>
  <separator name="grids" >
   <i type="int" name="NGX">    56</i>
   <i type="int" name="NGY">    56</i>
   <i type="int" name="NGZ">    70</i>
   <i type="int" name="NGXF">   112</i>
   <i type="int" name="NGYF">   112</i>
   <i type="int" name="NGZF">   140</i>
   <i type="logical" name="ADDGRID"> F  </i>
  </separator>
  <separator name="ionic" >
   <i type="int" name="NSW">     1</i>
   <i type="int" name="IBRION">     2</i>
   <i type="int" name="MDALGO">     0</i>
   <i type="int" name="ISIF">     2</i>
   <i name="PSTRESS">      0.00000000</i>
   <i name="EDIFFG">     -0.01000000</i>
   <i type="int" name="NFREE">     1</i>
   <i name="POTIM">      0.50000000</i>
   <i name="SMASS">     -3.00000000</i>
   <i name="SCALEE">      1.00000000</i>
  </separator>
  <separator name="ionic md" >
   <i name="TEBEG">      0.00010000</i>
   <i name="TEEND">      0.00010000</i>
   <i type="int" name="NBLOCK">     1</i>
   <i type="int" name="KBLOCK">     1</i>
   <i type="int" name="NPACO">   256</i>
   <i name="APACO">     16.00000000</i>
  </separator>
  <separator name="symmetry" >
   <i type="int" name="ISYM">     0</i>
   <i name="SYMPREC">      0.00001000</i>
  </separator>
  <separator name="dos" >
   <i type="int" name="LORBIT">    11</i>
   <v name="RWIGS">     -1.00000000     -1.00000000     -1.00000000     -1.00000000</v>
   <i type="int" name="NEDOS">   301</i>
   <i name="EMIN">     10.00000000</i>
   <i name="EMAX">    -10.00000000</i>
   <i name="EFERMI">      0.00000000</i>
  </separator>
  <separator name="writing" >
   <i type="int" name="NWRITE">     2</i>
   <i type="logical" name="LWAVE"> F  </i>
   <i type="logical" name="LDOWNSAMPLE"> F  </i>
   <i type="logical" name="LCHARG"> F  </i>
   <i type="logical" name="LPARD"> F  </i>
   <i type="logical" name="LVTOT"> F  </i>
   <i type="logical" name="LVHAR"> F  </i>
   <i type="logical" name="LELF"> F  </i>
   <i type="logical" name="LOPTICS"> F  </i>
   <v name="STM">      0.00000000      0.00000000      0.00000000      0.00000000      0.00000000      0.00000000      0.00000000</v>
  </separator>
  <separator name="performance" >
   <i type="int" name="NPAR">     8</i>
   <i type="int" name="NSIM">     4</i>
   <i type="int" name="NBLK">    -1</i>
   <i type="logical" name="LPLANE"> T  </i>
   <i type="logical" name="LSCALAPACK"> T  </i>
   <i type="logical" name="LSCAAWARE"> F  </i>
   <i type="logical" name="LSCALU"> F  </i>
   <i type="logical" name="LASYNC"> F  </i>
   <i type="logical" name="LORBITALREAL"> F  </i>
  </separator>
  <separator name="miscellaneous" >
   <i type="int" name="IDIOT">     3</i>
   <i type="int" name="ISPECIAL">     0</i>
   <i type="logical" name="LMUSIC"> F  </i>
   <v name="POMASS">      7.01000000     30.97400000     32.06600000     35.45300000</v>
   <v name="DARWINR">      0.00000000      0.00000000      0.00000000      0.00000000</v>
   <v name="DARWINV">      1.00000000      1.00000000      1.00000000      1.00000000</v>
   <i type="logical" name="LCORR"> T  </i>
  </separator>
  <i type="logical" name="GGA_COMPAT"> T  </i>
  <i type="logical" name="LBERRY"> F  </i>
  <i type="int" name="ICORELEVEL">     0</i>
  <i type="logical" name="LDAU"> F  </i>
  <i type="int" name="I_CONSTRAINED_M">     0</i>
  <separator name="electronic exchange-correlation" >
   <i type="string" name="GGA">--</i>
   <i type="int" name="VOSKOWN">     0</i>
   <i type="logical" name="LHFCALC"> F  </i>
   <i type="string" name="PRECFOCK"></i>
   <i type="logical" name="LSYMGRAD"> F  </i>
   <i type="logical" name="LHFONE"> F  </i>
   <i type="logical" name="LRHFCALC"> F  </i>
   <i type="logical" name="LTHOMAS"> F  </i>
   <i type="logical" name="LMODELHF"> F  </i>
   <i name="ENCUT4O">     -1.00000000</i>
   <i type="int" name="EXXOEP">     0</i>
   <i type="int" name="FOURORBIT">     0</i>
   <i name="AEXX">      0.00000000</i>
   <i name="HFALPHA">      0.00000000</i>
   <i name="MCALPHA">      0.00000000</i>
   <i name="ALDAX">      1.00000000</i>
   <i name="AGGAX">      1.00000000</i>
   <i name="ALDAC">      1.00000000</i>
   <i name="AGGAC">      1.00000000</i>
   <i type="int" name="NKREDX">     1</i>
   <i type="int" name="NKREDY">     1</i>
   <i type="int" name="NKREDZ">     1</i>
   <i type="logical" name="SHIFTRED"> F  </i>
   <i type="logical" name="ODDONLY"> F  </i>
   <i type="logical" name="EVENONLY"> F  </i>
   <i type="int" name="LMAXFOCK">     0</i>
   <i type="int" name="NMAXFOCKAE">     0</i>
   <i type="logical" name="LFOCKAEDFT"> F  </i>
   <i name="HFSCREEN">      0.00000000</i>
   <i name="HFSCREENC">      0.00000000</i>
   <i type="int" name="NBANDSGWLOW">     0</i>
  </separator>
  <separator name="vdW DFT" >
   <i type="logical" name="LUSE_VDW"> F  </i>
   <i name="Zab_VDW">     -0.84910000</i>
   <i name="PARAM1">      0.12340000</i>
   <i name="PARAM2">      1.00000000</i>
   <i name="PARAM3">      0.00000000</i>
  </separator>
  <separator name="model GW" >
   <i type="int" name="MODEL_GW">     0</i>
   <i name="MODEL_EPS0">     11.97712500</i>
   <i name="MODEL_ALPHA">      1.00000000</i>
  </separator>
  <separator name="linear response parameters" >
   <i type="logical" name="LEPSILON"> F  </i>
   <i type="logical" name="LRPA"> F  </i>
   <i type="logical" name="LNABLA"> F  </i>
   <i type="logical" name="LVEL"> F  </i>
   <i type="int" name="KINTER">     0</i>
   <i name="CSHIFT">      0.10000000</i>
   <i name="OMEGAMAX">     -1.00000000</i>
   <i name="DEG_THRESHOLD">      0.00200000</i>
   <i name="RTIME">     -0.10000000</i>
   <i name="WPLASMAI">      0.00000000</i>
   <v name="DFIELD">      0.00000000      0.00000000      0.00000000</v>
   <v name="WPLASMA">      0.00000000      0.00000000      0.00000000      0.00000000      0.00000000      0.00000000      0.00000000      0.00000000      0.00000000</v>
  </separator>
  <separator name="orbital magnetization" >
   <i type="logical" name="NUCIND"> F  </i>
   <v name="MAGPOS">      0.00000000      0.00000000      0.00000000</v>
   <i type="logical" name="LNICSALL"> T  </i>
   <i type="logical" name="ORBITALMAG"> F  </i>
   <i type="logical" name="LMAGBLOCH"> F  </i>
   <i type="logical" name="LCHIMAG"> F  </i>
   <i type="logical" name="LGAUGE"> T  </i>
   <i type="int" name="MAGATOM">     0</i>
   <v name="MAGDIPOL">      0.00000000      0.00000000      0.00000000</v>
   <v name="AVECCONST">      0.00000000      0.00000000      0.00000000</v>
  </separator>
  <separator name="response functions" >
   <i type="logical" name="LADDER"> F  </i>
   <i type="logical" name="LRPAFORCE"> F  </i>
   <i type="logical" name="LFXC"> F  </i>
   <i type="logical" name="LHARTREE"> T  </i>
   <i type="int" name="IBSE">     0</i>
   <v type="int" name="KPOINT">    -1     0     0     0</v>
   <i type="logical" name="LTCTE"> F  </i>
   <i type="logical" name="LTETE"> F  </i>
   <i type="logical" name="LTRIPLET"> F  </i>
   <i type="logical" name="LFXCEPS"> F  </i>
   <i type="logical" name="LFXHEG"> F  </i>
   <i type="int" name="NATURALO">     2</i>
   <i type="logical" name="L2ORDER"> F  </i>
   <i type="logical" name="LMP2LT"> F  </i>
   <i type="logical" name="LUSEW"> F  </i>
   <i name="ENCUTGW">     -2.00000000</i>
   <i name="ENCUTGWSOFT">     -2.00000000</i>
   <i name="ENCUTLF">     -1.00000000</i>
   <i type="int" name="LMAXMP2">    -1</i>
   <i name="SCISSOR">      0.00000000</i>
   <i type="int" name="NOMEGA">     0</i>
   <i type="int" name="NOMEGAR">     0</i>
   <i type="int" name="NBANDSGW">    -1</i>
   <i type="int" name="NBANDSO">    -1</i>
   <i type="int" name="NBANDSV">    -1</i>
   <i type="int" name="NELM">   100</i>
   <i type="int" name="NELMHF">     1</i>
   <i type="int" name="DIM">     3</i>
   <i type="int" name="ANTIRES">     0</i>
   <i name="OMEGAMAX">    -30.00000000</i>
   <i name="OMEGAMIN">    -30.00000000</i>
   <i name="OMEGATL">   -200.00000000</i>
   <i type="int" name="OMEGAGRID">   140</i>
   <i name="CSHIFT">     -0.10000000</i>
   <i type="logical" name="SELFENERGY"> F  </i>
   <i type="logical" name="LSPECTRAL"> F  </i>
   <i type="logical" name="LSPECTRALGW"> F  </i>
   <i type="logical" name="LSINGLES"> F  </i>
   <i type="logical" name="LFERMIGW"> F  </i>
   <i type="logical" name="ODDONLYGW"> F  </i>
   <i type="logical" name="EVENONLYGW"> F  </i>
   <i type="int" name="NKREDLFX">     1</i>
   <i type="int" name="NKREDLFY">     1</i>
   <i type="int" name="NKREDLFZ">     1</i>
   <i type="int" name="MAXMEM">  2800</i>
   <i type="int" name="TELESCOPE">     0</i>
   <i type="int" name="TAUPAR">     1</i>
   <i type="int" name="OMEGAPAR">    -1</i>
   <i name="LAMBDA">      1.00000000</i>
  </separator>
  <separator name="External order field" >
   <i name="OFIELD_KAPPA">      0.00000000</i>
   <v name="OFIELD_K">      0.00000000      0.00000000      0.00000000</v>
   <i name="OFIELD_Q6_NEAR">      0.00000000</i>
   <i name="OFIELD_Q6_FAR">      0.00000000</i>
   <i name="OFIELD_A">      0.00000000</i>
  </separator>
 </parameters>
 <atominfo>
  <atoms>      65 </atoms>
  <types>       4 </types>
  <array name="atoms" >
   <dimension dim="1">ion</dimension>
   <field type="string">element</field>
   <field type="int">atomtype</field>
   <set>
    <rc><c>Li</c><c>   1</c></rc>
    <rc><c>Li</c><c>   1</c></rc>
    <rc><c>Li</c><c>   1</c></rc>
    <rc><c>Li</c><c>   1</c></rc>
    <rc><c>Li</c><c>   1</c></rc>
    <rc><c>Li</c><c>   1</c></rc>
    <rc><c>Li</c><c>   1</c></rc>
    <rc><c>Li</c><c>   1</c></rc>
    <rc><c>Li</c><c>   1</c></rc>
    <rc><c>Li</c><c>   1</c></rc>
    <rc><c>Li</c><c>   1</c></rc>
    <rc><c>Li</c><c>   1</c></rc>
    <rc><c>Li</c><c>   1</c></rc>
    <rc><c>Li</c><c>   1</c></rc>
    <rc><c>Li</c><c>   1</c></rc>
    <rc><c>Li</c><c>   1</c></rc>
    <rc><c>Li</c><c>   1</c></rc>
    <rc><c>Li</c><c>   1</c></rc>
    <rc><c>Li</c><c>   1</c></rc>
    <rc><c>Li</c><c>   1</c></rc>
    <rc><c>Li</c><c>   1</c></rc>
    <rc><c>Li</c><c>   1</c></rc>
    <rc><c>Li</c><c>   1</c></rc>
    <rc><c>Li</c><c>   1</c></rc>
    <rc><c>Li</c><c>   1</c></rc>
    <rc><c>Li</c><c>   1</c></rc>
    <rc><c>Li</c><c>   1</c></rc>
    <rc><c>Li</c><c>   1</c></rc>
    <rc><c>Li</c><c>   1</c></rc>
    <rc><c>Li</c><c>   1</c></rc>
    <rc><c>P </c><c>   2</c></rc>
    <rc><c>P </c><c>   2</c></rc>
    <rc><c>P </c><c>   2</c></rc>
    <rc><c>P </c><c>   2</c></rc>
    <rc><c>P </c><c>   2</c></rc>
    <rc><c>S </c><c>   3</c></rc>
    <rc><c>S </c><c>   3</c></rc>
    <rc><c>S </c><c>   3</c></rc>
    <rc><c>S </c><c>   3</c></rc>
    <rc><c>S </c><c>   3</c></rc>
    <rc><c>S </c><c>   3</c></rc>
    <rc><c>S </c><c>   3</c></rc>
    <rc><c>S </c><c>   3</c></rc>
    <rc><c>S </c><c>   3</c></rc>
    <rc><c>S </c><c>   3</c></rc>
    <rc><c>S </c><c>   3</c></rc>
    <rc><c>S </c><c>   3</c></rc>
    <rc><c>S </c><c>   3</c></rc>
    <rc><c>S </c><c>   3</c></rc>
    <rc><c>S </c><c>   3</c></rc>
    <rc><c>S </c><c>   3</c></rc>
    <rc><c>S </c><c>   3</c></rc>
    <rc><c>S </c><c>   3</c></rc>
    <rc><c>S </c><c>   3</c></rc>
    <rc><c>S </c><c>   3</c></rc>
    <rc><c>S </c><c>   3</c></rc>
    <rc><c>S </c><c>   3</c></rc>
    <rc><c>S </c><c>   3</c></rc>
    <rc><c>S </c><c>   3</c></rc>
    <rc><c>S </c><c>   3</c></rc>
    <rc><c>Cl</c><c>   4</c></rc>
    <rc><c>Cl</c><c>   4</c></rc>
    <rc><c>Cl</c><c>   4</c></rc>
    <rc><c>Cl</c><c>   4</c></rc>
    <rc><c>Cl</c><c>   4</c></rc>
   </set>
  </array>
  <array name="atomtypes" >
   <dimension dim="1">type</dimension>
   <field type="int">atomspertype</field>
   <field type="string">element</field>
   <field>mass</field>
   <field>valence</field>
   <field type="string">pseudopotential</field>
   <set>
    <rc><c>  30</c><c>Li</c><c>      7.01000000</c><c>      3.00000000</c><c>  PAW_PBE Li_sv 10Sep2004               </c></rc>
    <rc><c>   5</c><c>P </c><c>     30.97400000</c><c>      5.00000000</c><c>  PAW_PBE P 06Sep2000                   </c></rc>
    <rc><c>  25</c><c>S </c><c>     32.06600000</c><c>      6.00000000</c><c>  PAW_PBE S 06Sep2000                   </c></rc>
    <rc><c>   5</c><c>Cl</c><c>     35.45300000</c><c>      7.00000000</c><c>  PAW_PBE Cl 06Sep2000                  </c></rc>
   </set>
  </array>
 </atominfo>
 <structure name="initialpos" >
  <crystal>
   <varray name="basis" >
    <v>      10.25000000       0.00000000       0.00000000 </v>
    <v>       0.00000000      10.25000000       0.00000000 </v>
    <v>       0.00000000       0.00000000      12.35000000 </v>
   </varray>
   <i name="volume">   1297.52187500 </i>
   <varray name="rec_basis" >
    <v>       0.09756098       0.00000000       0.00000000 </v>
    <v>       0.00000000       0.09756098       0.00000000 </v>
    <v>       0.00000000       0.00000000       0.08097166 </v>
   </varray>
  </crystal>
  <varray name="positions" >
   <v>       0.63647707       0.87521366       0.98540891 </v>
   <v>       0.71921171       0.60331415       0.61893927 </v>
   <v>       0.22706732       0.12255902       0.06112300 </v>
   <v>       0.13082537       0.74780976       0.21081215 </v>
   <v>       0.28197854       0.18492683       0.31137490 </v>
   <v>       0.17173268       0.04925307       0.66685263 </v>
   <v>       0.70695317       0.57486537       0.23639352 </v>
   <v>       0.52148098       0.06006917       0.31376275 </v>
   <v>       0.97680000       0.91735220       0.59810526 </v>
   <v>       0.91163707       0.41025073       0.22019271 </v>
   <v>       0.42521366       0.97423610       0.52185911 </v>
   <v>       0.91825756       0.58623024       0.03715061 </v>
   <v>       0.00410039       0.36908000       0.71937490 </v>
   <v>       0.30527415       0.54403415       0.59357166 </v>
   <v>       0.60423122       0.21002146       0.00426497 </v>
   <v>       0.83521756       0.25807024       0.84867206 </v>
   <v>       0.64741268       0.53213463       0.98070445 </v>
   <v>       0.47813659       0.40965951       0.42847611 </v>
   <v>       0.49467122       0.67645659       0.13130931 </v>
   <v>       0.24721463       0.76492976       0.88464777 </v>
   <v>       0.64452878       0.28420683       0.21421862 </v>
   <v>       0.94335707       0.66243024       0.72460243 </v>
   <v>       0.01619824       0.39718829       0.45884211 </v>
   <v>       0.92373561       0.21313756       0.04541255 </v>
   <v>       0.70895317       0.13898732       0.44278866 </v>
   <v>       0.55451220       0.61436488       0.78207692 </v>
   <v>       0.65204780       0.86662537       0.19222996 </v>
   <v>       0.69019902       0.07354761       0.81240486 </v>
   <v>       0.57616683       0.24574146       0.61464453 </v>
   <v>       0.90627707       0.88234732       0.01057870 </v>
   <v>       0.30060098       0.62878537       0.32890526 </v>
   <v>       0.28601561       0.45828195       0.88560324 </v>
   <v>       0.08040771       0.41995512       0.97628340 </v>
   <v>       0.16393268       0.70405171       0.50148016 </v>
   <v>       0.98382439       0.62075317       0.45418947 </v>
   <v>       0.37746732       0.11718927       0.82038866 </v>
   <v>       0.39925073       0.90016000       0.22346316 </v>
   <v>       0.45966439       0.91608293       0.81339271 </v>
   <v>       0.20982537       0.90094049       0.50697490 </v>
   <v>       0.85485854       0.76158146       0.53145101 </v>
   <v>       0.02454410       0.19851024       0.57997409 </v>
   <v>       0.51950049       0.60595805       0.32721377 </v>
   <v>       0.39805756       0.61886049       0.94833198 </v>
   <v>       0.20890146       0.36362244       0.13095223 </v>
   <v>       0.17880683       0.55096293       0.75882510 </v>
   <v>       0.74900976       0.39735902       0.07648704 </v>
   <v>       0.77550829       0.54788098       0.82004049 </v>
   <v>       0.06023327       0.26563024       0.89086640 </v>
   <v>       0.95870537       0.61690634       0.29618462 </v>
   <v>       0.07395854       0.22938634       0.18885911 </v>
   <v>       0.75920585       0.06429141       0.97197571 </v>
   <v>       0.84461073       0.10467122       0.60651417 </v>
   <v>       0.45406927       0.18126049       0.46592874 </v>
   <v>       0.72032195       0.72596098       0.08412146 </v>
   <v>       0.77720195       0.38212488       0.71413360 </v>
   <v>       0.43102439       0.18142732       0.16196356 </v>
   <v>       0.53182732       0.24673366       0.80740324 </v>
   <v>       0.57257951       0.86249854       0.70686316 </v>
   <v>       0.42195415       0.98346341       0.08680000 </v>
   <v>       0.22327317       0.45643805       0.42174656 </v>
   <v>       0.51448488       0.49819220       0.59908502 </v>
   <v>       0.80806049       0.32534927       0.37638947 </v>
   <v>       0.12319805       0.85748488       0.74039676 </v>
   <v>       0.73325659       0.05238302       0.28389231 </v>
   <v>       0.08036312       0.72797366       0.01572470 </v>
  </varray>
 </structure>
 <calculation>
  <scstep>
   <time name="diag">    0.25    0.27</time>
   <time name="diis">    0.34    0.34</time>
   <time name="orth">    0.02    0.02</time>
   <time name="total">    0.71    0.75</time>
   <energy>
    <i name="alphaZ">    256.70245505 </i>
    <i name="ewald">  -9719.68632727 </i>
    <i name="hartreedc">  -3527.06013417 </i>
    <i name="XCdc">    792.77352971 </i>
    <i name="pawpsdc">  10155.13001117 </i>
    <i name="pawaedc"> -10497.29644279 </i>
    <i name="eentropy">     -0.00000633 </i>
    <i name="bandstr">  -4479.07032044 </i>
    <i name="atom">  15932.49537490 </i>
    <i name="e_fr_energy">  -1086.01186017 </i>
    <i name="e_wo_entrp">  -1086.01185384 </i>
    <i name="e_0_energy">  -1086.01185700 </i>
   </energy>
  </scstep>
  <scstep>
   <time name="diag">    0.19    0.19</time>
   <time name="diis">    0.33    0.33</time>
   <time name="orth">    0.02    0.02</time>
   <time name="total">    0.53    0.53</time>
   <energy>
    <i name="e_fr_energy">    761.95387795 </i>
    <i name="e_wo_entrp">    761.95387795 </i>
    <i name="e_0_energy">    761.95387795 </i>
   </energy>
  </scstep>
  <scstep>
   <time name="diag">    0.19    0.19</time>
   <time name="diis">    0.32    0.32</time>
   <time name="orth">    0.02    0.02</time>
   <time name="total">    0.53    0.53</time>
   <energy>
    <i name="e_fr_energy">    253.06789277 </i>
    <i name="e_wo_entrp">    253.06789313 </i>
    <i name="e_0_energy">    253.06789295 </i>
   </energy>
  </scstep>
  <scstep>
   <time name="diag">    0.19    0.19</time>
   <time name="diis">    0.33    0.33</time>
   <time name="orth">    0.02    0.02</time>
   <time name="total">    0.53    0.53</time>
   <energy>
    <i name="e_fr_energy">     -4.75305244 </i>
    <i name="e_wo_entrp">     -4.73130424 </i>
    <i name="e_0_energy">     -4.74217834 </i>
   </energy>
  </scstep>
  <scstep>
   <time name="diag">    0.18    0.18</time>
   <time name="diis">    0.32    0.32</time>
   <time name="orth">    0.02    0.02</time>
   <time name="total">    0.53    0.53</time>
   <energy>
    <i name="e_fr_energy">   -118.37581588 </i>
    <i name="e_wo_entrp">   -118.37581588 </i>
    <i name="e_0_energy">   -118.37581588 </i>
   </energy>
  </scstep>
  <scstep>
   <time name="diag">    0.18    0.18</time>
   <time name="diis">    0.32    0.32</time>
   <time name="orth">    0.02    0.02</time>
   <time name="total">    0.53    0.53</time>
   <energy>
    <i name="e_fr_energy">   -165.43134273 </i>
    <i name="e_wo_entrp">   -165.43134273 </i>
    <i name="e_0_energy">   -165.43134273 </i>
   </energy>
  </scstep>
  <scstep>
   <time name="diag">    0.18    0.18</time>
   <time name="diis">    0.32    0.32</time>
   <time name="orth">    0.02    0.02</time>
   <time name="total">    0.52    0.52</time>
   <energy>
    <i name="e_fr_energy">   -188.57260362 </i>
    <i name="e_wo_entrp">   -188.57260362 </i>
    <i name="e_0_energy">   -188.57260362 </i>
   </energy>
  </scstep>
  <scstep>
   <time name="diag">    0.18    0.18</time>
   <time name="diis">    0.32    0.32</time>
   <time name="orth">    0.02    0.02</time>
   <time name="total">    0.52    0.52</time>
   <energy>
    <i name="e_fr_energy">   -202.19744910 </i>
    <i name="e_wo_entrp">   -202.19744910 </i>
    <i name="e_0_energy">   -202.19744910 </i>
   </energy>
  </scstep>
  <scstep>
   <time name="diag">    0.18    0.18</time>
   <time name="diis">    1.16    1.16</time>
   <time name="orth">    0.03    0.03</time>
   <time name="total">    1.37    1.37</time>
   <energy>
    <i name="e_fr_energy">   -237.67655457 </i>
    <i name="e_wo_entrp">   -237.67655457 </i>
    <i name="e_0_energy">   -237.67655457 </i>
   </energy>
  </scstep>
  <scstep>
   <time name="diag">    0.20    0.20</time>
   <time name="diis">    1.26    1.26</time>
   <time name="orth">    0.03    0.03</time>
   <time name="total">    1.49    1.49</time>
   <energy>
    <i name="e_fr_energy">   -255.53244620 </i>
    <i name="e_wo_entrp">   -255.53244620 </i>
    <i name="e_0_energy">   -255.53244620 </i>
   </energy>
  </scstep>
  <scstep>
   <time name="diag">    0.19    0.19</time>
   <time name="diis">    1.08    1.08</time>
   <time name="orth">    0.03    0.03</time>
   <time name="total">    1.30    1.30</time>
   <energy>
    <i name="e_fr_energy">   -259.41129621 </i>
    <i name="e_wo_entrp">   -259.41129621 </i>
    <i name="e_0_energy">   -259.41129621 </i>
   </energy>
  </scstep>
  <scstep>
   <time name="diag">    0.19    0.19</time>
   <time name="diis">    1.08    1.08</time>
   <time name="orth">    0.03    0.03</time>
   <time name="total">    1.35    1.35</time>
   <energy>
    <i name="e_fr_energy">   -261.71067901 </i>
    <i name="e_wo_entrp">   -261.71067901 </i>
    <i name="e_0_energy">   -261.71067901 </i>
   </energy>
  </scstep>
  <scstep>
   <time name="diag">    0.18    0.18</time>
   <time name="diis">    0.84    0.84</time>
   <time name="orth">    0.03    0.03</time>
   <time name="total">    1.18    1.18</time>
   <energy>
    <i name="e_fr_energy">   -251.83793200 </i>
    <i name="e_wo_entrp">   -251.83793200 </i>
    <i name="e_0_energy">   -251.83793200 </i>
   </energy>
  </scstep>
  <scstep>
   <time name="diag">    0.18    0.18</time>
   <time name="diis">    0.88    0.88</time>
   <time name="orth">    0.03    0.03</time>
   <time name="total">    1.22    1.22</time>
   <energy>
    <i name="e_fr_energy">   -250.73897857 </i>
    <i name="e_wo_entrp">   -250.73897857 </i>
    <i name="e_0_energy">   -250.73897857 </i>
   </energy>
  </scstep>
  <scstep>
   <time name="diag">    0.18    0.18</time>
   <time name="diis">    1.01    1.01</time>
   <time name="orth">    0.03    0.03</time>
   <time name="total">    1.35    1.35</time>
   <energy>
    <i name="e_fr_energy">   -250.86242924 </i>
    <i name="e_wo_entrp">   -250.86242924 </i>
    <i name="e_0_energy">   -250.86242924 </i>
   </energy>
  </scstep>
  <scstep>
   <time name="diag">    0.18    0.18</time>
   <time name="diis">    1.07    1.07</time>
   <time name="orth">    0.03    0.03</time>
   <time name="total">    1.40    1.41</time>
   <energy>
    <i name="e_fr_energy">   -250.95964150 </i>
    <i name="e_wo_entrp">   -250.95964150 </i>
    <i name="e_0_energy">   -250.95964150 </i>
   </energy>
  </scstep>
  <scstep>
   <time name="diag">    0.19    0.19</time>
   <time name="diis">    1.16    1.16</time>
   <time name="orth">    0.04    0.04</time>
   <time name="total">    1.52    1.52</time>
   <energy>
    <i name="e_fr_energy">   -251.05653694 </i>
    <i name="e_wo_entrp">   -251.05653694 </i>
    <i name="e_0_energy">   -251.05653694 </i>
   </energy>
  </scstep>
  <scstep>
   <time name="diag">    0.20    0.20</time>
   <time name="diis">    1.15    1.15</time>
   <time name="orth">    0.04    0.04</time>
   <time name="total">    1.53    1.53</time>
   <energy>
    <i name="e_fr_energy">   -251.12224616 </i>
    <i name="e_wo_entrp">   -251.12224616 </i>
    <i name="e_0_energy">   -251.12224616 </i>
   </energy>
  </scstep>
  <scstep>
   <time name="diag">    0.20    0.20</time>
   <time name="diis">    1.22    1.22</time>
   <time name="orth">    0.04    0.04</time>
   <time name="total">    1.60    1.60</time>
   <energy>
    <i name="e_fr_energy">   -251.17458948 </i>
    <i name="e_wo_entrp">   -251.17458948 </i>
    <i name="e_0_energy">   -251.17458948 </i>
   </energy>
  </scstep>
  <scstep>
   <time name="diag">    0.18    0.18</time>
   <time name="diis">    1.07    1.07</time>
   <time name="orth">    0.04    0.04</time>
   <time name="total">    1.42    1.42</time>
   <energy>
    <i name="e_fr_energy">   -251.19496049 </i>
    <i name="e_wo_entrp">   -251.19496049 </i>
    <i name="e_0_energy">   -251.19496049 </i>
   </energy>
  </scstep>
  <scstep>
   <time name="diag">    0.18    0.18</time>
   <time name="diis">    1.04    1.04</time>
   <time name="orth">    0.04    0.04</time>
   <time name="total">    1.38    1.39</time>
   <energy>
    <i name="e_fr_energy">   -251.20976920 </i>
    <i name="e_wo_entrp">   -251.20976920 </i>
    <i name="e_0_energy">   -251.20976920 </i>
   </energy>
  </scstep>
  <scstep>
   <time name="diag">    0.18    0.18</time>
   <time name="diis">    1.03    1.03</time>
   <time name="orth">    0.04    0.04</time>
   <time name="total">    1.38    1.38</time>
   <energy>
    <i name="e_fr_energy">   -251.21728833 </i>
    <i name="e_wo_entrp">   -251.21728833 </i>
    <i name="e_0_energy">   -251.21728833 </i>
   </energy>
  </scstep>
  <scstep>
   <time name="diag">    0.18    0.18</time>
   <time name="diis">    1.06    1.06</time>
   <time name="orth">    0.03    0.03</time>
   <time name="total">    1.41    1.41</time>
   <energy>
    <i name="e_fr_energy">   -251.22176151 </i>
    <i name="e_wo_entrp">   -251.22176151 </i>
    <i name="e_0_energy">   -251.22176151 </i>
   </energy>
  </scstep>
  <scstep>
   <time name="diag">    0.19    0.19</time>
   <time name="diis">    1.27    1.27</time>
   <time name="orth">    0.03    0.03</time>
   <time name="total">    1.63    1.63</time>
   <energy>
    <i name="e_fr_energy">   -251.21910653 </i>
    <i name="e_wo_entrp">   -251.21910653 </i>
    <i name="e_0_energy">   -251.21910653 </i>
   </energy>
  </scstep>
  <scstep>
   <time name="diag">    0.18    0.18</time>
   <time name="diis">    1.09    1.09</time>
   <time name="orth">    0.03    0.03</time>
   <time name="total">    1.42    1.42</time>
   <energy>
    <i name="e_fr_energy">   -251.21740270 </i>
    <i name="e_wo_entrp">   -251.21740270 </i>
    <i name="e_0_energy">   -251.21740270 </i>
   </energy>
  </scstep>
  <scstep>
   <time name="diag">    0.18    0.18</time>
   <time name="diis">    1.03    1.03</time>
   <time name="orth">    0.03    0.03</time>
   <time name="total">    1.36    1.36</time>
   <energy>
    <i name="e_fr_energy">   -251.22219025 </i>
    <i name="e_wo_entrp">   -251.22219025 </i>
    <i name="e_0_energy">   -251.22219025 </i>
   </energy>
  </scstep>
  <scstep>
   <time name="diag">    0.18    0.18</time>
   <time name="diis">    0.86    0.86</time>
   <time name="orth">    0.03    0.03</time>
   <time name="total">    1.20    1.20</time>
   <energy>
    <i name="e_fr_energy">   -251.23106461 </i>
    <i name="e_wo_entrp">   -251.23106461 </i>
    <i name="e_0_energy">   -251.23106461 </i>
   </energy>
  </scstep>
  <scstep>
   <time name="diag">    0.18    0.18</time>
   <time name="diis">    1.08    1.08</time>
   <time name="orth">    0.02    0.02</time>
   <time name="total">    1.42    1.42</time>
   <energy>
    <i name="e_fr_energy">   -251.23359972 </i>
    <i name="e_wo_entrp">   -251.23359972 </i>
    <i name="e_0_energy">   -251.23359972 </i>
   </energy>
  </scstep>
  <scstep>
   <time name="diag">    0.18    0.18</time>
   <time name="diis">    1.08    1.08</time>
   <time name="orth">    0.02    0.02</time>
   <time name="total">    1.42    1.42</time>
   <energy>
    <i name="e_fr_energy">   -251.23512545 </i>
    <i name="e_wo_entrp">   -251.23512545 </i>
    <i name="e_0_energy">   -251.23512545 </i>
   </energy>
  </scstep>
  <scstep>
   <time name="diag">    0.18    0.18</time>
   <time name="diis">    1.05    1.05</time>
   <time name="orth">    0.02    0.02</time>
   <time name="total">    1.39    1.39</time>
   <energy>
    <i name="e_fr_energy">   -251.23613255 </i>
    <i name="e_wo_entrp">   -251.23613255 </i>
    <i name="e_0_energy">   -251.23613255 </i>
   </energy>
  </scstep>
  <scstep>
   <time name="diag">    0.18    0.18</time>
   <time name="diis">    1.03    1.03</time>
   <time name="orth">    0.03    0.03</time>
   <time name="total">    1.38    1.38</time>
   <energy>
    <i name="e_fr_energy">   -251.23614087 </i>
    <i name="e_wo_entrp">   -251.23614087 </i>
    <i name="e_0_energy">   -251.23614087 </i>
   </energy>
  </scstep>
  <scstep>
   <time name="diag">    0.19    0.19</time>
   <time name="diis">    1.09    1.09</time>
   <time name="orth">    0.03    0.03</time>
   <time name="total">    1.45    1.45</time>
   <energy>
    <i name="e_fr_energy">   -251.23622876 </i>
    <i name="e_wo_entrp">   -251.23622876 </i>
    <i name="e_0_energy">   -251.23622876 </i>
   </energy>
  </scstep>
  <scstep>
   <time name="diag">    0.18    0.18</time>
   <time name="diis">    0.99    0.99</time>
   <time name="orth">    0.03    0.03</time>
   <time name="total">    1.33    1.33</time>
   <energy>
    <i name="e_fr_energy">   -251.23657052 </i>
    <i name="e_wo_entrp">   -251.23657052 </i>
    <i name="e_0_energy">   -251.23657052 </i>
   </energy>
  </scstep>
  <scstep>
   <time name="diag">    0.18    0.18</time>
   <time name="diis">    0.99    0.99</time>
   <time name="orth">    0.02    0.02</time>
   <time name="total">    1.33    1.33</time>
   <energy>
    <i name="e_fr_energy">   -251.23675022 </i>
    <i name="e_wo_entrp">   -251.23675022 </i>
    <i name="e_0_energy">   -251.23675022 </i>
   </energy>
  </scstep>
  <scstep>
   <time name="diag">    0.18    0.18</time>
   <time name="diis">    1.06    1.06</time>
   <time name="orth">    0.03    0.03</time>
   <time name="total">    1.40    1.39</time>
   <energy>
    <i name="e_fr_energy">   -251.23689729 </i>
    <i name="e_wo_entrp">   -251.23689729 </i>
    <i name="e_0_energy">   -251.23689729 </i>
   </energy>
  </scstep>
  <scstep>
   <time name="diag">    0.18    0.18</time>
   <time name="diis">    1.07    1.07</time>
   <time name="orth">    0.03    0.03</time>
   <time name="total">    1.41    1.41</time>
   <energy>
    <i name="e_fr_energy">   -251.23699024 </i>
    <i name="e_wo_entrp">   -251.23699024 </i>
    <i name="e_0_energy">   -251.23699024 </i>
   </energy>
  </scstep>
  <scstep>
   <time name="diag">    0.18    0.18</time>
   <time name="diis">    0.99    0.99</time>
   <time name="orth">    0.03    0.03</time>
   <time name="total">    1.33    1.33</time>
   <energy>
    <i name="e_fr_energy">   -251.23703837 </i>
    <i name="e_wo_entrp">   -251.23703837 </i>
    <i name="e_0_energy">   -251.23703837 </i>
   </energy>
  </scstep>
  <scstep>
   <time name="diag">    0.18    0.18</time>
   <time name="diis">    1.02    1.02</time>
   <time name="orth">    0.03    0.03</time>
   <time name="total">    1.38    1.38</time>
   <energy>
    <i name="e_fr_energy">   -251.23706706 </i>
    <i name="e_wo_entrp">   -251.23706706 </i>
    <i name="e_0_energy">   -251.23706706 </i>
   </energy>
  </scstep>
  <scstep>
   <time name="diag">    0.21    0.21</time>
   <time name="diis">    0.98    0.98</time>
   <time name="orth">    0.03    0.03</time>
   <time name="total">    1.36    1.36</time>
   <energy>
    <i name="e_fr_energy">   -251.23707970 </i>
    <i name="e_wo_entrp">   -251.23707970 </i>
    <i name="e_0_energy">   -251.23707970 </i>
   </energy>
  </scstep>
  <scstep>
   <time name="diag">    0.18    0.18</time>
   <time name="diis">    0.94    0.94</time>
   <time name="orth">    0.03    0.03</time>
   <time name="total">    1.28    1.28</time>
   <energy>
    <i name="e_fr_energy">   -251.23709453 </i>
    <i name="e_wo_entrp">   -251.23709453 </i>
    <i name="e_0_energy">   -251.23709453 </i>
   </energy>
  </scstep>
  <scstep>
   <time name="diag">    0.18    0.18</time>
   <time name="diis">    0.89    0.89</time>
   <time name="orth">    0.03    0.03</time>
   <time name="total">    1.24    1.24</time>
   <energy>
    <i name="e_fr_energy">   -251.23710443 </i>
    <i name="e_wo_entrp">   -251.23710443 </i>
    <i name="e_0_energy">   -251.23710443 </i>
   </energy>
  </scstep>
  <scstep>
   <time name="diag">    0.18    0.18</time>
   <time name="diis">    0.81    0.81</time>
   <time name="orth">    0.03    0.03</time>
   <time name="total">    1.15    1.15</time>
   <energy>
    <i name="e_fr_energy">   -251.23711248 </i>
    <i name="e_wo_entrp">   -251.23711248 </i>
    <i name="e_0_energy">   -251.23711248 </i>
   </energy>
  </scstep>
  <scstep>
   <time name="diag">    0.18    0.18</time>
   <time name="diis">    0.78    0.78</time>
   <time name="orth">    0.02    0.02</time>
   <time name="total">    1.12    1.12</time>
   <energy>
    <i name="e_fr_energy">   -251.23711867 </i>
    <i name="e_wo_entrp">   -251.23711867 </i>
    <i name="e_0_energy">   -251.23711867 </i>
   </energy>
  </scstep>
  <scstep>
   <time name="diag">    0.18    0.18</time>
   <time name="diis">    0.88    0.88</time>
   <time name="orth">    0.02    0.02</time>
   <time name="total">    1.23    1.22</time>
   <energy>
    <i name="e_fr_energy">   -251.23712288 </i>
    <i name="e_wo_entrp">   -251.23712288 </i>
    <i name="e_0_energy">   -251.23712288 </i>
   </energy>
  </scstep>
  <scstep>
   <time name="diag">    0.18    0.18</time>
   <time name="diis">    0.86    0.86</time>
   <time name="orth">    0.03    0.03</time>
   <time name="total">    1.22    1.22</time>
   <energy>
    <i name="e_fr_energy">   -251.23712594 </i>
    <i name="e_wo_entrp">   -251.23712594 </i>
    <i name="e_0_energy">   -251.23712594 </i>
   </energy>
  </scstep>
  <scstep>
   <time name="diag">    0.18    0.18</time>
   <time name="diis">    0.76    0.76</time>
   <time name="orth">    0.03    0.03</time>
   <time name="total">    1.13    1.13</time>
   <energy>
    <i name="e_fr_energy">   -251.23712781 </i>
    <i name="e_wo_entrp">   -251.23712781 </i>
    <i name="e_0_energy">   -251.23712781 </i>
   </energy>
  </scstep>
  <scstep>
   <time name="diag">    0.20    0.20</time>
   <time name="diis">    0.68    0.68</time>
   <time name="orth">    0.02    0.02</time>
   <time name="total">    1.06    1.06</time>
   <energy>
    <i name="e_fr_energy">   -251.23712909 </i>
    <i name="e_wo_entrp">   -251.23712909 </i>
    <i name="e_0_energy">   -251.23712909 </i>
   </energy>
  </scstep>
  <scstep>
   <time name="diag">    0.18    0.18</time>
   <time name="diis">    0.73    0.73</time>
   <time name="orth">    0.03    0.03</time>
   <time name="total">    1.08    1.08</time>
   <energy>
    <i name="e_fr_energy">   -251.23713034 </i>
    <i name="e_wo_entrp">   -251.23713034 </i>
    <i name="e_0_energy">   -251.23713034 </i>
   </energy>
  </scstep>
  <scstep>
   <time name="diag">    0.18    0.18</time>
   <time name="diis">    0.71    0.71</time>
   <time name="orth">    0.03    0.03</time>
   <time name="total">    1.06    1.06</time>
   <energy>
    <i name="e_fr_energy">   -251.23713139 </i>
    <i name="e_wo_entrp">   -251.23713139 </i>
    <i name="e_0_energy">   -251.23713139 </i>
   </energy>
  </scstep>
  <scstep>
   <time name="diag">    0.18    0.18</time>
   <time name="diis">    0.69    0.69</time>
   <time name="orth">    0.03    0.03</time>
   <time name="total">    0.98    0.98</time>
   <energy>
    <i name="alphaZ">    256.70245505 </i>
    <i name="ewald">  -9719.68632727 </i>
    <i name="hartreedc">  -3725.67743209 </i>
    <i name="XCdc">    807.42907423 </i>
    <i name="pawpsdc">  23621.54832379 </i>
    <i name="pawaedc"> -23977.74706580 </i>
    <i name="eentropy">     -0.00000000 </i>
    <i name="bandstr">  -3446.30153505 </i>
    <i name="atom">  15932.49537490 </i>
    <i name="e_fr_energy">   -251.23713225 </i>
    <i name="e_wo_entrp">   -251.23713225 </i>
    <i name="e_0_energy">   -251.23713225 </i>
   </energy>
  </scstep>
  <structure>
   <crystal>
    <varray name="basis" >
     <v>      10.25000000       0.00000000       0.00000000 </v>
     <v>       0.00000000      10.25000000       0.00000000 </v>
     <v>       0.00000000       0.00000000      12.35000000 </v>
    </varray>
    <i name="volume">   1297.52187500 </i>
    <varray name="rec_basis" >
     <v>       0.09756098       0.00000000       0.00000000 </v>
     <v>       0.00000000       0.09756098       0.00000000 </v>
     <v>       0.00000000       0.00000000       0.08097166 </v>
    </varray>
   </crystal>
   <varray name="positions" >
    <v>       0.63647707       0.87521366       0.98540891 </v>
    <v>       0.71921171       0.60331415       0.61893927 </v>
    <v>       0.22706732       0.12255902       0.06112300 </v>
    <v>       0.13082537       0.74780976       0.21081215 </v>
    <v>       0.28197854       0.18492683       0.31137490 </v>
    <v>       0.17173268       0.04925307       0.66685263 </v>
    <v>       0.70695317       0.57486537       0.23639352 </v>
    <v>       0.52148098       0.06006917       0.31376275 </v>
    <v>       0.97680000       0.91735220       0.59810526 </v>
    <v>       0.91163707       0.41025073       0.22019271 </v>
    <v>       0.42521366       0.97423610       0.52185911 </v>
    <v>       0.91825756       0.58623024       0.03715061 </v>
    <v>       0.00410039       0.36908000       0.71937490 </v>
    <v>       0.30527415       0.54403415       0.59357166 </v>
    <v>       0.60423122       0.21002146       0.00426497 </v>
    <v>       0.83521756       0.25807024       0.84867206 </v>
    <v>       0.64741268       0.53213463       0.98070445 </v>
    <v>       0.47813659       0.40965951       0.42847611 </v>
    <v>       0.49467122       0.67645659       0.13130931 </v>
    <v>       0.24721463       0.76492976       0.88464777 </v>
    <v>       0.64452878       0.28420683       0.21421862 </v>
    <v>       0.94335707       0.66243024       0.72460243 </v>
    <v>       0.01619824       0.39718829       0.45884211 </v>
    <v>       0.92373561       0.21313756       0.04541255 </v>
    <v>       0.70895317       0.13898732       0.44278866 </v>
    <v>       0.55451220       0.61436488       0.78207692 </v>
    <v>       0.65204780       0.86662537       0.19222996 </v>
    <v>       0.69019902       0.07354761       0.81240486 </v>
    <v>       0.57616683       0.24574146       0.61464453 </v>
    <v>       0.90627707       0.88234732       0.01057870 </v>
    <v>       0.30060098       0.62878537       0.32890526 </v>
    <v>       0.28601561       0.45828195       0.88560324 </v>
    <v>       0.08040771       0.41995512       0.97628340 </v>
    <v>       0.16393268       0.70405171       0.50148016 </v>
    <v>       0.98382439       0.62075317       0.45418947 </v>
    <v>       0.37746732       0.11718927       0.82038866 </v>
    <v>       0.39925073       0.90016000       0.22346316 </v>
    <v>       0.45966439       0.91608293       0.81339271 </v>
    <v>       0.20982537       0.90094049       0.50697490 </v>
    <v>       0.85485854       0.76158146       0.53145101 </v>
    <v>       0.02454410       0.19851024       0.57997409 </v>
    <v>       0.51950049       0.60595805       0.32721377 </v>
    <v>       0.39805756       0.61886049       0.94833198 </v>
    <v>       0.20890146       0.36362244       0.13095223 </v>
    <v>       0.17880683       0.55096293       0.75882510 </v>
    <v>       0.74900976       0.39735902       0.07648704 </v>
    <v>       0.77550829       0.54788098       0.82004049 </v>
    <v>       0.06023327       0.26563024       0.89086640 </v>
    <v>       0.95870537       0.61690634       0.29618462 </v>
    <v>       0.07395854       0.22938634       0.18885911 </v>
    <v>       0.75920585       0.06429141       0.97197571 </v>
    <v>       0.84461073       0.10467122       0.60651417 </v>
    <v>       0.45406927       0.18126049       0.46592874 </v>
    <v>       0.72032195       0.72596098       0.08412146 </v>
    <v>       0.77720195       0.38212488       0.71413360 </v>
    <v>       0.43102439       0.18142732       0.16196356 </v>
    <v>       0.53182732       0.24673366       0.80740324 </v>
    <v>       0.57257951       0.86249854       0.70686316 </v>
    <v>       0.42195415       0.98346341       0.08680000 </v>
    <v>       0.22327317       0.45643805       0.42174656 </v>
    <v>       0.51448488       0.49819220       0.59908502 </v>
    <v>       0.80806049       0.32534927       0.37638947 </v>
    <v>       0.12319805       0.85748488       0.74039676 </v>
    <v>       0.73325659       0.05238302       0.28389231 </v>
    <v>       0.08036312       0.72797366       0.01572470 </v>
   </varray>
  </structure>
  <varray name="forces" >
   <v>      -0.58002641       0.84582773      -0.91534539 </v>
   <v>       0.01114048      -0.28378186      -0.28064742 </v>
   <v>      -0.00538483       0.50615639      -0.10360643 </v>
   <v>       0.06840361      -0.16724346      -0.04638254 </v>
   <v>      -0.33621840       0.16649866       0.56123877 </v>
   <v>       0.35073164       0.36512418      -0.06453995 </v>
   <v>       0.71761092      -0.07775963      -0.43274394 </v>
   <v>      -0.22572892       0.22950946       0.06393232 </v>
   <v>       0.37948159       0.52001999       0.00154526 </v>
   <v>       0.09277071      -0.60336744       0.13840285 </v>
   <v>       0.00927671      -0.42847730       0.37175121 </v>
   <v>      -0.79029856      -0.29804101      -0.06684297 </v>
   <v>       0.61166566      -0.01749824      -0.34082744 </v>
   <v>      -0.52619650      -0.03100250       0.11615411 </v>
   <v>      -0.24836023       0.53502958      -0.02703024 </v>
   <v>      -0.08224590      -0.42585044       0.80875536 </v>
   <v>      -0.60293441       0.71491194      -0.42775628 </v>
   <v>      -0.27165921      -0.09008750       0.05751962 </v>
   <v>      -0.38243160      -0.12709501       0.18019428 </v>
   <v>      -0.28795049       0.09054809      -0.56273662 </v>
   <v>       0.38990168      -0.27204937       0.28981831 </v>
   <v>       0.54038514       0.34554098       0.00235469 </v>
   <v>      -0.60661020      -0.99982017       0.14293969 </v>
   <v>      -0.72673345      -0.11324353       0.12297546 </v>
   <v>       0.28174860       0.20550225       0.51686321 </v>
   <v>      -0.47727690       0.05778484      -0.00452625 </v>
   <v>      -0.19223686       1.11490821       1.26527333 </v>
   <v>      -0.46860239      -0.54498590      -1.44332932 </v>
   <v>       0.05047094       0.37320392       0.42085631 </v>
   <v>      -0.39030314       0.02467527      -0.01079248 </v>
   <v>      -0.31205807      -1.13440278       1.32183682 </v>
   <v>      -1.27826952       0.09869306       0.27373960 </v>
   <v>       2.69595710       2.96078664       1.96074954 </v>
   <v>       3.19116665       0.53299144      -0.02591129 </v>
   <v>      -1.23876403       0.51757920       2.09273195 </v>
   <v>       0.07840549      -0.56367701      -0.39203238 </v>
   <v>      -0.64373678      -3.06368124       2.67827078 </v>
   <v>      -3.57519448       1.34834731       4.95756885 </v>
   <v>      -0.62549162       0.72822573      -1.15268514 </v>
   <v>      -0.14936613      -1.24669854      -0.24911475 </v>
   <v>       0.31181630       0.34816302       0.19058822 </v>
   <v>      -1.87210478       0.17396934       0.27768366 </v>
   <v>       0.75350241      -0.29434545       0.15216755 </v>
   <v>      -1.44113579       0.66215878      -1.32035064 </v>
   <v>       0.19718231      -0.32891760      -0.29738611 </v>
   <v>       0.77477399      -1.08265562       1.17010319 </v>
   <v>      -0.20449404       0.65210897      -0.58604982 </v>
   <v>      -0.27800587      -3.28920844      -1.25552427 </v>
   <v>      -0.61895689       0.76872922      -2.88643276 </v>
   <v>       0.41420621      -0.67561076       0.64850504 </v>
   <v>       1.52267051      -0.56885693       0.61069271 </v>
   <v>      -0.61281447       0.22881287       0.34966653 </v>
   <v>       0.49088188      -0.22538874      -0.38856507 </v>
   <v>       0.47759724      -0.93171597      -0.44650618 </v>
   <v>       0.27182628       0.46568124      -0.30789093 </v>
   <v>       0.66374998      -0.22846918      -1.33384435 </v>
   <v>       0.00287837      -0.16649156      -0.18067995 </v>
   <v>       3.27575433      -0.94936019      -4.33460564 </v>
   <v>       0.47990719       2.42040472      -2.07577426 </v>
   <v>       1.69934184      -0.25938494      -1.04411114 </v>
   <v>       0.32790261       0.38003566       0.41876780 </v>
   <v>      -0.31139945       0.74888077      -0.03108335 </v>
   <v>      -0.90768855       0.14742745       1.11489662 </v>
   <v>       0.04093139      -0.80357035      -0.75967390 </v>
   <v>       0.09663912       1.01450178       0.51678553 </v>
  </varray>
  <varray name="stress" >
   <v>       3.94397657      -4.51551840      -2.47426647 </v>
   <v>      -4.51551830      34.50970531      -6.05483252 </v>
   <v>      -2.47426659      -6.05483266      33.01334407 </v>
  </varray>
  <energy>
   <i name="e_fr_energy">   -251.23713225 </i>
   <i name="e_wo_entrp">   -251.23713225 </i>
   <i name="e_0_energy">     -0.00000000 </i>
  </energy>
  <time name="totalsc">   62.15   62.19</time>
  <eigenvalues>
   <array>
    <dimension dim="1">band</dimension>
    <dimension dim="2">kpoint</dimension>
    <dimension dim="3">spin</dimension>
    <field>eigene</field>
    <field>occ</field>
    <set>
     <set comment="spin 1">
      <set comment="kpoint 1">
       <r>  -44.4180    1.0000 </r>
       <r>  -44.3820    1.0000 </r>
       <r>  -44.1476    1.0000 </r>
       <r>  -44.0634    1.0000 </r>
       <r>  -44.0152    1.0000 </r>
       <r>  -43.9188    1.0000 </r>
       <r>  -43.7829    1.0000 </r>
       <r>  -43.7783    1.0000 </r>
       <r>  -43.6623    1.0000 </r>
       <r>  -43.6514    1.0000 </r>
       <r>  -43.6062    1.0000 </r>
       <r>  -43.5744    1.0000 </r>
       <r>  -43.4731    1.0000 </r>
       <r>  -43.4658    1.0000 </r>
       <r>  -43.4130    1.0000 </r>
       <r>  -43.2852    1.0000 </r>
       <r>  -43.2745    1.0000 </r>
       <r>  -43.2095    1.0000 </r>
       <r>  -43.1584    1.0000 </r>
       <r>  -43.1268    1.0000 </r>
       <r>  -43.1166    1.0000 </r>
       <r>  -43.1052    1.0000 </r>
       <r>  -43.0809    1.0000 </r>
       <r>  -42.9997    1.0000 </r>
       <r>  -42.9676    1.0000 </r>
       <r>  -42.9569    1.0000 </r>
       <r>  -42.8828    1.0000 </r>
       <r>  -42.8584    1.0000 </r>
       <r>  -42.7567    1.0000 </r>
       <r>  -42.7428    1.0000 </r>
       <r>  -14.6182    1.0000 </r>
       <r>  -14.4243    1.0000 </r>
       <r>  -13.5702    1.0000 </r>
       <r>  -13.1874    1.0000 </r>
       <r>  -13.1155    1.0000 </r>
       <r>  -12.9035    1.0000 </r>
       <r>  -12.6193    1.0000 </r>
       <r>  -12.5427    1.0000 </r>
       <r>  -12.5015    1.0000 </r>
       <r>  -12.3752    1.0000 </r>
       <r>  -12.3432    1.0000 </r>
       <r>  -12.0834    1.0000 </r>
       <r>  -11.5185    1.0000 </r>
       <r>  -11.3718    1.0000 </r>
       <r>  -11.2538    1.0000 </r>
       <r>  -10.7635    1.0000 </r>
       <r>  -10.7262    1.0000 </r>
       <r>  -10.2029    1.0000 </r>
       <r>  -10.0301    1.0000 </r>
       <r>   -9.9705    1.0000 </r>
       <r>   -9.6135    1.0000 </r>
       <r>   -9.3363    1.0000 </r>
       <r>   -9.1072    1.0000 </r>
       <r>   -9.0168    1.0000 </r>
       <r>   -8.9717    1.0000 </r>
       <r>   -8.7512    1.0000 </r>
       <r>   -8.5006    1.0000 </r>
       <r>   -8.4184    1.0000 </r>
       <r>   -7.9182    1.0000 </r>
       <r>   -7.5870    1.0000 </r>
       <r>   -7.3831    1.0000 </r>
       <r>   -7.0512    1.0000 </r>
       <r>   -6.7715    1.0000 </r>
       <r>   -5.9917    1.0000 </r>
       <r>   -5.3418    1.0000 </r>
       <r>   -3.8207    1.0000 </r>
       <r>   -3.8183    1.0000 </r>
       <r>   -3.5994    1.0000 </r>
       <r>   -3.3078    1.0000 </r>
       <r>   -3.1644    1.0000 </r>
       <r>   -3.0761    1.0000 </r>
       <r>   -2.9861    1.0000 </r>
       <r>   -2.9302    1.0000 </r>
       <r>   -2.8560    1.0000 </r>
       <r>   -2.8314    1.0000 </r>
       <r>   -2.6801    1.0000 </r>
       <r>   -2.5757    1.0000 </r>
       <r>   -2.4507    1.0000 </r>
       <r>   -2.4173    1.0000 </r>
       <r>   -2.3364    1.0000 </r>
       <r>   -2.2908    1.0000 </r>
       <r>   -2.2337    1.0000 </r>
       <r>   -2.1441    1.0000 </r>
       <r>   -2.0968    1.0000 </r>
       <r>   -1.9984    1.0000 </r>
       <r>   -1.9540    1.0000 </r>
       <r>   -1.8954    1.0000 </r>
       <r>   -1.8047    1.0000 </r>
       <r>   -1.7690    1.0000 </r>
       <r>   -1.7044    1.0000 </r>
       <r>   -1.5772    1.0000 </r>
       <r>   -1.5517    1.0000 </r>
       <r>   -1.5242    1.0000 </r>
       <r>   -1.5043    1.0000 </r>
       <r>   -1.4384    1.0000 </r>
       <r>   -1.3888    1.0000 </r>
       <r>   -1.3274    1.0000 </r>
       <r>   -1.2770    1.0000 </r>
       <r>   -1.2345    1.0000 </r>
       <r>   -1.1432    1.0000 </r>
       <r>   -1.1071    1.0000 </r>
       <r>   -1.0736    1.0000 </r>
       <r>   -0.9792    1.0000 </r>
       <r>   -0.9302    1.0000 </r>
       <r>   -0.8953    1.0000 </r>
       <r>   -0.8496    1.0000 </r>
       <r>   -0.6885    1.0000 </r>
       <r>   -0.6422    1.0000 </r>
       <r>   -0.5721    1.0000 </r>
       <r>   -0.5275    1.0000 </r>
       <r>   -0.4652    1.0000 </r>
       <r>   -0.4218    1.0000 </r>
       <r>   -0.3822    1.0000 </r>
       <r>   -0.3009    1.0000 </r>
       <r>   -0.1982    1.0000 </r>
       <r>   -0.1353    1.0000 </r>
       <r>   -0.0617    1.0000 </r>
       <r>    0.0030    1.0000 </r>
       <r>    0.0470    1.0000 </r>
       <r>    0.0912    1.0000 </r>
       <r>    0.1781    1.0000 </r>
       <r>    0.2214    1.0000 </r>
       <r>    0.2413    1.0000 </r>
       <r>    0.2871    1.0000 </r>
       <r>    0.3123    1.0000 </r>
       <r>    0.3862    1.0000 </r>
       <r>    0.4025    1.0000 </r>
       <r>    0.4687    1.0000 </r>
       <r>    0.5028    1.0000 </r>
       <r>    0.5444    1.0000 </r>
       <r>    0.6082    1.0000 </r>
       <r>    0.6802    1.0000 </r>
       <r>    0.7298    1.0000 </r>
       <r>    0.7506    1.0000 </r>
       <r>    0.8827    1.0000 </r>
       <r>    0.9603    1.0000 </r>
       <r>    1.0035    1.0000 </r>
       <r>    1.0711    1.0000 </r>
       <r>    1.1272    1.0000 </r>
       <r>    1.2556    1.0000 </r>
       <r>    1.2776    1.0000 </r>
       <r>    1.3720    1.0000 </r>
       <r>    1.4538    1.0000 </r>
       <r>    1.7212    1.0000 </r>
       <r>    1.7438    1.0000 </r>
       <r>    1.8315    1.0000 </r>
       <r>    1.9395    1.0000 </r>
       <r>    2.0884    1.0000 </r>
       <r>    2.1381    1.0000 </r>
       <r>    2.2233    1.0000 </r>
       <r>    3.0101    0.0000 </r>
       <r>    3.4288    0.0000 </r>
       <r>    3.7131    0.0000 </r>
       <r>    4.0426    0.0000 </r>
       <r>    4.3221    0.0000 </r>
       <r>    4.4198    0.0000 </r>
       <r>    4.4492    0.0000 </r>
       <r>    4.6800    0.0000 </r>
       <r>    4.7761    0.0000 </r>
       <r>    4.8416    0.0000 </r>
       <r>    5.0376    0.0000 </r>
       <r>    5.1723    0.0000 </r>
       <r>    5.2785    0.0000 </r>
       <r>    5.2924    0.0000 </r>
       <r>    5.3793    0.0000 </r>
       <r>    5.4249    0.0000 </r>
       <r>    5.7585    0.0000 </r>
       <r>    5.7998    0.0000 </r>
       <r>    6.0364    0.0000 </r>
       <r>    6.1041    0.0000 </r>
       <r>    6.2348    0.0000 </r>
       <r>    6.2675    0.0000 </r>
       <r>    6.3606    0.0000 </r>
       <r>    6.4503    0.0000 </r>
       <r>    6.5182    0.0000 </r>
       <r>    6.5485    0.0000 </r>
       <r>    6.6163    0.0000 </r>
       <r>    6.7381    0.0000 </r>
       <r>    6.8779    0.0000 </r>
       <r>    6.9626    0.0000 </r>
       <r>    7.0847    0.0000 </r>
       <r>    7.1016    0.0000 </r>
       <r>    7.1894    0.0000 </r>
       <r>    7.5684    0.0000 </r>
      </set>
     </set>
    </set>
   </array>
  </eigenvalues>
  <separator name="orbital magnetization" >
   <v name="MAGDIPOLOUT">      0.00000000      0.00000000      0.00000000</v>
  </separator>
  <dos>
   <i name="efermi">      2.56690972 </i>
   <total>
    <array>
     <dimension dim="1">gridpoints</dimension>
     <dimension dim="2">spin</dimension>
     <field>energy</field>
     <field>total</field>
     <field>integrated</field>
     <set>
      <set comment="spin 1">
       <r>   -47.0173     0.0000     0.0000 </r>
       <r>   -46.8267     0.0000     0.0000 </r>
       <r>   -46.6361     0.0000     0.0000 </r>
       <r>   -46.4455     0.0000     0.0000 </r>
       <r>   -46.2549     0.0000     0.0000 </r>
       <r>   -46.0643     0.0000     0.0000 </r>
       <r>   -45.8736     0.0000     0.0000 </r>
       <r>   -45.6830     0.0000     0.0000 </r>
       <r>   -45.4924     0.0000     0.0000 </r>
       <r>   -45.3018     0.0000     0.0000 </r>
       <r>   -45.1112     0.0000     0.0000 </r>
       <r>   -44.9205     0.0000     0.0000 </r>
       <r>   -44.7299     0.0000     0.0000 </r>
       <r>   -44.5393     0.0032     0.0006 </r>
       <r>   -44.3487    18.9001     3.6033 </r>
       <r>   -44.1581     6.1430     4.7742 </r>
       <r>   -43.9675    27.3340     9.9846 </r>
       <r>   -43.7768    21.9585    14.1702 </r>
       <r>   -43.5862    41.4500    22.0713 </r>
       <r>   -43.3956    37.9467    29.3046 </r>
       <r>   -43.2050    31.2538    35.2621 </r>
       <r>   -43.0144    61.0122    46.8921 </r>
       <r>   -42.8238    45.9852    55.6576 </r>
       <r>   -42.6331    22.7680    59.9976 </r>
       <r>   -42.4425     0.0126    60.0000 </r>
       <r>   -42.2519     0.0000    60.0000 </r>
       <r>   -42.0613     0.0000    60.0000 </r>
       <r>   -41.8707     0.0000    60.0000 </r>
       <r>   -41.6801     0.0000    60.0000 </r>
       <r>   -41.4894     0.0000    60.0000 </r>
       <r>   -41.2988     0.0000    60.0000 </r>
       <r>   -41.1082     0.0000    60.0000 </r>
       <r>   -40.9176     0.0000    60.0000 </r>
       <r>   -40.7270     0.0000    60.0000 </r>
       <r>   -40.5364     0.0000    60.0000 </r>
       <r>   -40.3457     0.0000    60.0000 </r>
       <r>   -40.1551     0.0000    60.0000 </r>
       <r>   -39.9645     0.0000    60.0000 </r>
       <r>   -39.7739     0.0000    60.0000 </r>
       <r>   -39.5833     0.0000    60.0000 </r>
       <r>   -39.3927     0.0000    60.0000 </r>
       <r>   -39.2020     0.0000    60.0000 </r>
       <r>   -39.0114     0.0000    60.0000 </r>
       <r>   -38.8208     0.0000    60.0000 </r>
       <r>   -38.6302     0.0000    60.0000 </r>
       <r>   -38.4396     0.0000    60.0000 </r>
       <r>   -38.2490     0.0000    60.0000 </r>
       <r>   -38.0583     0.0000    60.0000 </r>
       <r>   -37.8677     0.0000    60.0000 </r>
       <r>   -37.6771     0.0000    60.0000 </r>
       <r>   -37.4865     0.0000    60.0000 </r>
       <r>   -37.2959     0.0000    60.0000 </r>
       <r>   -37.1053     0.0000    60.0000 </r>
       <r>   -36.9146     0.0000    60.0000 </r>
       <r>   -36.7240     0.0000    60.0000 </r>
       <r>   -36.5334     0.0000    60.0000 </r>
       <r>   -36.3428     0.0000    60.0000 </r>
       <r>   -36.1522     0.0000    60.0000 </r>
       <r>   -35.9616     0.0000    60.0000 </r>
       <r>   -35.7709     0.0000    60.0000 </r>
       <r>   -35.5803     0.0000    60.0000 </r>
       <r>   -35.3897     0.0000    60.0000 </r>
       <r>   -35.1991     0.0000    60.0000 </r>
       <r>   -35.0085     0.0000    60.0000 </r>
       <r>   -34.8178     0.0000    60.0000 </r>
       <r>   -34.6272     0.0000    60.0000 </r>
       <r>   -34.4366     0.0000    60.0000 </r>
       <r>   -34.2460     0.0000    60.0000 </r>
       <r>   -34.0554     0.0000    60.0000 </r>
       <r>   -33.8648     0.0000    60.0000 </r>
       <r>   -33.6741     0.0000    60.0000 </r>
       <r>   -33.4835     0.0000    60.0000 </r>
       <r>   -33.2929     0.0000    60.0000 </r>
       <r>   -33.1023     0.0000    60.0000 </r>
       <r>   -32.9117     0.0000    60.0000 </r>
       <r>   -32.7211     0.0000    60.0000 </r>
       <r>   -32.5304     0.0000    60.0000 </r>
       <r>   -32.3398     0.0000    60.0000 </r>
       <r>   -32.1492     0.0000    60.0000 </r>
       <r>   -31.9586     0.0000    60.0000 </r>
       <r>   -31.7680     0.0000    60.0000 </r>
       <r>   -31.5774     0.0000    60.0000 </r>
       <r>   -31.3867     0.0000    60.0000 </r>
       <r>   -31.1961     0.0000    60.0000 </r>
       <r>   -31.0055     0.0000    60.0000 </r>
       <r>   -30.8149     0.0000    60.0000 </r>
       <r>   -30.6243     0.0000    60.0000 </r>
       <r>   -30.4337     0.0000    60.0000 </r>
       <r>   -30.2430     0.0000    60.0000 </r>
       <r>   -30.0524     0.0000    60.0000 </r>
       <r>   -29.8618     0.0000    60.0000 </r>
       <r>   -29.6712     0.0000    60.0000 </r>
       <r>   -29.4806     0.0000    60.0000 </r>
       <r>   -29.2900     0.0000    60.0000 </r>
       <r>   -29.0993     0.0000    60.0000 </r>
       <r>   -28.9087     0.0000    60.0000 </r>
       <r>   -28.7181     0.0000    60.0000 </r>
       <r>   -28.5275     0.0000    60.0000 </r>
       <r>   -28.3369     0.0000    60.0000 </r>
       <r>   -28.1463     0.0000    60.0000 </r>
       <r>   -27.9556     0.0000    60.0000 </r>
       <r>   -27.7650     0.0000    60.0000 </r>
       <r>   -27.5744     0.0000    60.0000 </r>
       <r>   -27.3838     0.0000    60.0000 </r>
       <r>   -27.1932     0.0000    60.0000 </r>
       <r>   -27.0026     0.0000    60.0000 </r>
       <r>   -26.8119     0.0000    60.0000 </r>
       <r>   -26.6213     0.0000    60.0000 </r>
       <r>   -26.4307     0.0000    60.0000 </r>
       <r>   -26.2401     0.0000    60.0000 </r>
       <r>   -26.0495     0.0000    60.0000 </r>
       <r>   -25.8588     0.0000    60.0000 </r>
       <r>   -25.6682     0.0000    60.0000 </r>
       <r>   -25.4776     0.0000    60.0000 </r>
       <r>   -25.2870     0.0000    60.0000 </r>
       <r>   -25.0964     0.0000    60.0000 </r>
       <r>   -24.9058     0.0000    60.0000 </r>
       <r>   -24.7151     0.0000    60.0000 </r>
       <r>   -24.5245     0.0000    60.0000 </r>
       <r>   -24.3339     0.0000    60.0000 </r>
       <r>   -24.1433     0.0000    60.0000 </r>
       <r>   -23.9527     0.0000    60.0000 </r>
       <r>   -23.7621     0.0000    60.0000 </r>
       <r>   -23.5714     0.0000    60.0000 </r>
       <r>   -23.3808     0.0000    60.0000 </r>
       <r>   -23.1902     0.0000    60.0000 </r>
       <r>   -22.9996     0.0000    60.0000 </r>
       <r>   -22.8090     0.0000    60.0000 </r>
       <r>   -22.6184     0.0000    60.0000 </r>
       <r>   -22.4277     0.0000    60.0000 </r>
       <r>   -22.2371     0.0000    60.0000 </r>
       <r>   -22.0465     0.0000    60.0000 </r>
       <r>   -21.8559     0.0000    60.0000 </r>
       <r>   -21.6653     0.0000    60.0000 </r>
       <r>   -21.4747     0.0000    60.0000 </r>
       <r>   -21.2840     0.0000    60.0000 </r>
       <r>   -21.0934     0.0000    60.0000 </r>
       <r>   -20.9028     0.0000    60.0000 </r>
       <r>   -20.7122     0.0000    60.0000 </r>
       <r>   -20.5216     0.0000    60.0000 </r>
       <r>   -20.3310     0.0000    60.0000 </r>
       <r>   -20.1403     0.0000    60.0000 </r>
       <r>   -19.9497     0.0000    60.0000 </r>
       <r>   -19.7591     0.0000    60.0000 </r>
       <r>   -19.5685     0.0000    60.0000 </r>
       <r>   -19.3779     0.0000    60.0000 </r>
       <r>   -19.1873     0.0000    60.0000 </r>
       <r>   -18.9966     0.0000    60.0000 </r>
       <r>   -18.8060     0.0000    60.0000 </r>
       <r>   -18.6154     0.0000    60.0000 </r>
       <r>   -18.4248     0.0000    60.0000 </r>
       <r>   -18.2342     0.0000    60.0000 </r>
       <r>   -18.0436     0.0000    60.0000 </r>
       <r>   -17.8529     0.0000    60.0000 </r>
       <r>   -17.6623     0.0000    60.0000 </r>
       <r>   -17.4717     0.0000    60.0000 </r>
       <r>   -17.2811     0.0000    60.0000 </r>
       <r>   -17.0905     0.0000    60.0000 </r>
       <r>   -16.8999     0.0000    60.0000 </r>
       <r>   -16.7092     0.0000    60.0000 </r>
       <r>   -16.5186     0.0000    60.0000 </r>
       <r>   -16.3280     0.0000    60.0000 </r>
       <r>   -16.1374     0.0000    60.0000 </r>
       <r>   -15.9468     0.0000    60.0000 </r>
       <r>   -15.7561     0.0000    60.0000 </r>
       <r>   -15.5655     0.0000    60.0000 </r>
       <r>   -15.3749     0.0000    60.0000 </r>
       <r>   -15.1843     0.0000    60.0000 </r>
       <r>   -14.9937     0.0000    60.0000 </r>
       <r>   -14.8031     0.0000    60.0000 </r>
       <r>   -14.6124     5.9237    61.1292 </r>
       <r>   -14.4218    10.1105    63.0564 </r>
       <r>   -14.2312     4.9503    64.0000 </r>
       <r>   -14.0406     0.0000    64.0000 </r>
       <r>   -13.8500     0.0000    64.0000 </r>
       <r>   -13.6594     0.0612    64.0117 </r>
       <r>   -13.4687    10.4095    65.9959 </r>
       <r>   -13.2781     0.0755    66.0103 </r>
       <r>   -13.0875    18.6544    69.5661 </r>
       <r>   -12.8969     8.2952    71.1473 </r>
       <r>   -12.7063     4.5460    72.0139 </r>
       <r>   -12.5157    22.1715    76.2401 </r>
       <r>   -12.3250    26.2126    81.2367 </r>
       <r>   -12.1344     4.7868    82.1491 </r>
       <r>   -11.9438     9.7094    83.9999 </r>
       <r>   -11.7532     0.0004    84.0000 </r>
       <r>   -11.5626     1.1177    84.2130 </r>
       <r>   -11.3720    14.6055    86.9971 </r>
       <r>   -11.1813    15.5408    89.9595 </r>
       <r>   -10.9907     0.2127    90.0000 </r>
       <r>   -10.8001     1.7666    90.3368 </r>
       <r>   -10.6095    19.2127    93.9990 </r>
       <r>   -10.4189     0.0051    94.0000 </r>
       <r>   -10.2283     2.4812    94.4730 </r>
       <r>   -10.0376    12.6719    96.8884 </r>
       <r>    -9.8470    16.3211    99.9995 </r>
       <r>    -9.6564     1.1805   100.2245 </r>
       <r>    -9.4658     9.3154   102.0002 </r>
       <r>    -9.2752    10.0507   103.9160 </r>
       <r>    -9.0846     8.4906   105.5345 </r>
       <r>    -8.8939    23.2781   109.9717 </r>
       <r>    -8.7033     9.7202   111.8245 </r>
       <r>    -8.5127     4.8007   112.7396 </r>
       <r>    -8.3221    17.0705   115.9936 </r>
       <r>    -8.1315     0.0338   116.0000 </r>
       <r>    -7.9409     2.7364   116.5216 </r>
       <r>    -7.7502     7.7559   118.0000 </r>
       <r>    -7.5596     8.1952   119.5621 </r>
       <r>    -7.3690     9.1655   121.3092 </r>
       <r>    -7.1784     3.6255   122.0003 </r>
       <r>    -6.9878    10.1079   123.9271 </r>
       <r>    -6.7972     2.8410   124.4686 </r>
       <r>    -6.6065     8.0338   126.0000 </r>
       <r>    -6.4159     0.0000   126.0000 </r>
       <r>    -6.2253     0.0000   126.0000 </r>
       <r>    -6.0347     1.1763   126.2242 </r>
       <r>    -5.8441     9.3158   128.0000 </r>
       <r>    -5.6534     0.0002   128.0000 </r>
       <r>    -5.4628     0.0032   128.0006 </r>
       <r>    -5.2722    10.2311   129.9508 </r>
       <r>    -5.0816     0.2579   130.0000 </r>
       <r>    -4.8910     0.0000   130.0000 </r>
       <r>    -4.7004     0.0000   130.0000 </r>
       <r>    -4.5097     0.0000   130.0000 </r>
       <r>    -4.3191     0.0000   130.0000 </r>
       <r>    -4.1285     0.0000   130.0000 </r>
       <r>    -3.9379     0.0086   130.0016 </r>
       <r>    -3.7473    20.5432   133.9175 </r>
       <r>    -3.5567     9.7352   135.7732 </r>
       <r>    -3.3660     1.7126   136.0996 </r>
       <r>    -3.1754    13.9571   138.7601 </r>
       <r>    -2.9848    22.9901   143.1424 </r>
       <r>    -2.7942    34.0223   149.6276 </r>
       <r>    -2.6036    14.5454   152.4002 </r>
       <r>    -2.4130    23.3111   156.8437 </r>
       <r>    -2.2223    33.4764   163.2249 </r>
       <r>    -2.0317    26.6556   168.3059 </r>
       <r>    -1.8411    31.0158   174.2181 </r>
       <r>    -1.6505    29.8909   179.9158 </r>
       <r>    -1.4599    43.9881   188.3007 </r>
       <r>    -1.2693    37.2340   195.3981 </r>
       <r>    -1.0786    36.7402   202.4014 </r>
       <r>    -0.8880    35.6574   209.1983 </r>
       <r>    -0.6974    19.5207   212.9193 </r>
       <r>    -0.5068    35.2182   219.6324 </r>
       <r>    -0.3162    36.5655   226.6024 </r>
       <r>    -0.1256    24.3737   231.2485 </r>
       <r>     0.0651    34.2332   237.7739 </r>
       <r>     0.2557    40.2050   245.4377 </r>
       <r>     0.4463    46.6868   254.3370 </r>
       <r>     0.6369    39.1810   261.8055 </r>
       <r>     0.8275    32.9344   268.0834 </r>
       <r>     1.0181    27.6597   273.3558 </r>
       <r>     1.2088    25.4977   278.2161 </r>
       <r>     1.3994    28.6915   283.6852 </r>
       <r>     1.5900    12.1443   286.0001 </r>
       <r>     1.7806    19.7236   289.7597 </r>
       <r>     1.9712    20.3112   293.6314 </r>
       <r>     2.1618    20.5176   297.5424 </r>
       <r>     2.3525    12.8915   299.9997 </r>
       <r>     2.5431     0.0014   300.0000 </r>
       <r>     2.7337     0.0000   300.0000 </r>
       <r>     2.9243     0.0800   300.0152 </r>
       <r>     3.1149    10.3964   301.9970 </r>
       <r>     3.3056     0.0185   302.0005 </r>
       <r>     3.4962    10.1917   303.9432 </r>
       <r>     3.6868     2.6970   304.4573 </r>
       <r>     3.8774     8.0932   306.0000 </r>
       <r>     4.0680     8.0177   307.5283 </r>
       <r>     4.2586     2.8557   308.0727 </r>
       <r>     4.4493    23.7310   312.5962 </r>
       <r>     4.6399     8.7075   314.2560 </r>
       <r>     4.8305    22.9393   318.6286 </r>
[...]
        <r>  0.0000  0.0009  0.0011  0.0007  0.0000  0.0000  0.0000  0.0000  0.0000 </r>
        <r>  0.0001  0.0010  0.0008  0.0004  0.0000  0.0000  0.0000  0.0000  0.0000 </r>
        <r>  0.0001  0.0011  0.0010  0.0023  0.0000  0.0000  0.0000  0.0000  0.0000 </r>
        <r>  0.0006  0.0005  0.0011  0.0001  0.0000  0.0000  0.0000  0.0000  0.0000 </r>
        <r>  0.0009  0.0004  0.0006  0.0014  0.0000  0.0000  0.0000  0.0000  0.0000 </r>
        <r>  0.0002  0.0004  0.0001  0.0045  0.0000  0.0000  0.0000  0.0000  0.0000 </r>
        <r>  0.0003  0.0006  0.0013  0.0015  0.0000  0.0000  0.0000  0.0000  0.0000 </r>
        <r>  0.0001  0.0022  0.0007  0.0007  0.0000  0.0000  0.0000  0.0000  0.0000 </r>
        <r>  0.0001  0.0004  0.0006  0.0027  0.0000  0.0000  0.0000  0.0000  0.0000 </r>
        <r>  0.0006  0.0005  0.0015  0.0007  0.0000  0.0000  0.0000  0.0000  0.0000 </r>
        <r>  0.0015  0.0001  0.0004  0.0004  0.0000  0.0000  0.0000  0.0000  0.0000 </r>
        <r>  0.0003  0.0005  0.0003  0.0004  0.0000  0.0000  0.0000  0.0000  0.0000 </r>
        <r>  0.0027  0.0028  0.0003  0.0000  0.0000  0.0000  0.0000  0.0000  0.0000 </r>
        <r>  0.0005  0.0008  0.0034  0.0007  0.0000  0.0000  0.0000  0.0000  0.0000 </r>
        <r>  0.0001  0.0000  0.0002  0.0001  0.0000  0.0000  0.0000  0.0000  0.0000 </r>
        <r>  0.0004  0.0008  0.0002  0.0000  0.0000  0.0000  0.0000  0.0000  0.0000 </r>
        <r>  0.0009  0.0003  0.0000  0.0020  0.0000  0.0000  0.0000  0.0000  0.0000 </r>
        <r>  0.0003  0.0015  0.0005  0.0002  0.0000  0.0000  0.0000  0.0000  0.0000 </r>
        <r>  0.0013  0.0007  0.0016  0.0017  0.0000  0.0000  0.0000  0.0000  0.0000 </r>
        <r>  0.0035  0.0009  0.0000  0.0006  0.0000  0.0000  0.0000  0.0000  0.0000 </r>
        <r>  0.0027  0.0003  0.0010  0.0008  0.0000  0.0000  0.0000  0.0000  0.0000 </r>
        <r>  0.0001  0.0017  0.0002  0.0009  0.0000  0.0000  0.0000  0.0000  0.0000 </r>
        <r>  0.0001  0.0005  0.0007  0.0014  0.0000  0.0000  0.0000  0.0000  0.0000 </r>
        <r>  0.0008  0.0015  0.0025  0.0006  0.0000  0.0000  0.0000  0.0000  0.0000 </r>
        <r>  0.0042  0.0000  0.0034  0.0009  0.0000  0.0000  0.0000  0.0000  0.0000 </r>
        <r>  0.0000  0.0002  0.0012  0.0049  0.0000  0.0000  0.0000  0.0000  0.0000 </r>
        <r>  0.0006  0.0008  0.0014  0.0014  0.0000  0.0000  0.0000  0.0000  0.0000 </r>
        <r>  0.0006  0.0001  0.0000  0.0010  0.0000  0.0000  0.0000  0.0000  0.0000 </r>
        <r>  0.0001  0.0001  0.0006  0.0003  0.0000  0.0000  0.0000  0.0000  0.0000 </r>
        <r>  0.0004  0.0001  0.0002  0.0000  0.0000  0.0000  0.0000  0.0000  0.0000 </r>
        <r>  0.0018  0.0027  0.0005  0.0004  0.0000  0.0000  0.0000  0.0000  0.0000 </r>
        <r>  0.0004  0.0040  0.0011  0.0006  0.0000  0.0000  0.0000  0.0000  0.0000 </r>
        <r>  0.0003  0.0000  0.0015  0.0001  0.0000  0.0000  0.0000  0.0000  0.0000 </r>
        <r>  0.0003  0.0015  0.0002  0.0008  0.0000  0.0000  0.0000  0.0000  0.0000 </r>
        <r>  0.0004  0.0008  0.0003  0.0011  0.0000  0.0000  0.0000  0.0000  0.0000 </r>
        <r>  0.0005  0.0000  0.0000  0.0008  0.0000  0.0000  0.0000  0.0000  0.0000 </r>
        <r>  0.0002  0.0001  0.0001  0.0001  0.0000  0.0000  0.0000  0.0000  0.0000 </r>
        <r>  0.0014  0.0007  0.0018  0.0001  0.0000  0.0000  0.0000  0.0000  0.0000 </r>
        <r>  0.0010  0.0001  0.0004  0.0005  0.0000  0.0000  0.0000  0.0000  0.0000 </r>
       </set>
       <set comment="band 183">
        <r>  0.0012  0.0000  0.0003  0.0009  0.0000  0.0000  0.0000  0.0000  0.0000 </r>
        <r>  0.0014  0.0002  0.0027  0.0004  0.0000  0.0000  0.0000  0.0000  0.0000 </r>
        <r>  0.0008  0.0006  0.0003  0.0002  0.0000  0.0000  0.0000  0.0000  0.0000 </r>
        <r>  0.0003  0.0006  0.0012  0.0023  0.0000  0.0000  0.0000  0.0000  0.0000 </r>
        <r>  0.0031  0.0013  0.0000  0.0006  0.0000  0.0000  0.0000  0.0000  0.0000 </r>
        <r>  0.0009  0.0004  0.0006  0.0006  0.0000  0.0000  0.0000  0.0000  0.0000 </r>
        <r>  0.0002  0.0004  0.0005  0.0000  0.0000  0.0000  0.0000  0.0000  0.0000 </r>
        <r>  0.0000  0.0004  0.0008  0.0001  0.0000  0.0000  0.0000  0.0000  0.0000 </r>
        <r>  0.0002  0.0007  0.0002  0.0005  0.0000  0.0000  0.0000  0.0000  0.0000 </r>
        <r>  0.0009  0.0002  0.0003  0.0003  0.0000  0.0000  0.0000  0.0000  0.0000 </r>
        <r>  0.0000  0.0003  0.0003  0.0002  0.0000  0.0000  0.0000  0.0000  0.0000 </r>
        <r>  0.0004  0.0018  0.0000  0.0003  0.0000  0.0000  0.0000  0.0000  0.0000 </r>
        <r>  0.0005  0.0004  0.0020  0.0006  0.0000  0.0000  0.0000  0.0000  0.0000 </r>
        <r>  0.0000  0.0008  0.0002  0.0003  0.0000  0.0000  0.0000  0.0000  0.0000 </r>
        <r>  0.0008  0.0011  0.0012  0.0009  0.0000  0.0000  0.0000  0.0000  0.0000 </r>
        <r>  0.0016  0.0021  0.0002  0.0008  0.0000  0.0000  0.0000  0.0000  0.0000 </r>
        <r>  0.0006  0.0010  0.0005  0.0003  0.0000  0.0000  0.0000  0.0000  0.0000 </r>
        <r>  0.0001  0.0001  0.0030  0.0002  0.0000  0.0000  0.0000  0.0000  0.0000 </r>
        <r>  0.0002  0.0004  0.0002  0.0001  0.0000  0.0000  0.0000  0.0000  0.0000 </r>
        <r>  0.0002  0.0000  0.0003  0.0002  0.0000  0.0000  0.0000  0.0000  0.0000 </r>
        <r>  0.0003  0.0007  0.0037  0.0007  0.0000  0.0000  0.0000  0.0000  0.0000 </r>
        <r>  0.0004  0.0004  0.0001  0.0004  0.0000  0.0000  0.0000  0.0000  0.0000 </r>
        <r>  0.0004  0.0001  0.0012  0.0000  0.0000  0.0000  0.0000  0.0000  0.0000 </r>
        <r>  0.0003  0.0002  0.0003  0.0000  0.0000  0.0000  0.0000  0.0000  0.0000 </r>
        <r>  0.0001  0.0003  0.0000  0.0000  0.0000  0.0000  0.0000  0.0000  0.0000 </r>
        <r>  0.0002  0.0007  0.0042  0.0012  0.0000  0.0000  0.0000  0.0000  0.0000 </r>
        <r>  0.0006  0.0000  0.0014  0.0004  0.0000  0.0000  0.0000  0.0000  0.0000 </r>
        <r>  0.0001  0.0007  0.0001  0.0002  0.0000  0.0000  0.0000  0.0000  0.0000 </r>
        <r>  0.0002  0.0005  0.0003  0.0003  0.0000  0.0000  0.0000  0.0000  0.0000 </r>
        <r>  0.0003  0.0001  0.0000  0.0009  0.0000  0.0000  0.0000  0.0000  0.0000 </r>
        <r>  0.0003  0.0000  0.0006  0.0015  0.0000  0.0000  0.0000  0.0000  0.0000 </r>
        <r>  0.0002  0.0014  0.0012  0.0009  0.0000  0.0000  0.0000  0.0000  0.0000 </r>
        <r>  0.0004  0.0016  0.0013  0.0068  0.0000  0.0000  0.0000  0.0000  0.0000 </r>
        <r>  0.0003  0.0097  0.0002  0.0028  0.0000  0.0000  0.0000  0.0000  0.0000 </r>
        <r>  0.0009  0.0007  0.0015  0.0021  0.0000  0.0000  0.0000  0.0000  0.0000 </r>
        <r>  0.0001  0.0000  0.0007  0.0002  0.0000  0.0000  0.0000  0.0000  0.0000 </r>
        <r>  0.0002  0.0033  0.0002  0.0010  0.0000  0.0000  0.0000  0.0000  0.0000 </r>
        <r>  0.0012  0.0010  0.0025  0.0025  0.0000  0.0000  0.0000  0.0000  0.0000 </r>
        <r>  0.0012  0.0064  0.0022  0.0001  0.0000  0.0000  0.0000  0.0000  0.0000 </r>
        <r>  0.0007  0.0000  0.0003  0.0017  0.0000  0.0000  0.0000  0.0000  0.0000 </r>
        <r>  0.0006  0.0000  0.0008  0.0018  0.0000  0.0000  0.0000  0.0000  0.0000 </r>
        <r>  0.0002  0.0003  0.0005  0.0011  0.0000  0.0000  0.0000  0.0000  0.0000 </r>
        <r>  0.0007  0.0020  0.0002  0.0001  0.0000  0.0000  0.0000  0.0000  0.0000 </r>
        <r>  0.0009  0.0020  0.0019  0.0011  0.0000  0.0000  0.0000  0.0000  0.0000 </r>
        <r>  0.0000  0.0000  0.0008  0.0003  0.0000  0.0000  0.0000  0.0000  0.0000 </r>
        <r>  0.0054  0.0005  0.0014  0.0001  0.0000  0.0000  0.0000  0.0000  0.0000 </r>
        <r>  0.0012  0.0006  0.0011  0.0002  0.0000  0.0000  0.0000  0.0000  0.0000 </r>
        <r>  0.0002  0.0004  0.0000  0.0003  0.0000  0.0000  0.0000  0.0000  0.0000 </r>
        <r>  0.0010  0.0005  0.0018  0.0005  0.0000  0.0000  0.0000  0.0000  0.0000 </r>
        <r>  0.0014  0.0009  0.0022  0.0007  0.0000  0.0000  0.0000  0.0000  0.0000 </r>
        <r>  0.0016  0.0000  0.0005  0.0004  0.0000  0.0000  0.0000  0.0000  0.0000 </r>
        <r>  0.0003  0.0002  0.0003  0.0005  0.0000  0.0000  0.0000  0.0000  0.0000 </r>
        <r>  0.0001  0.0004  0.0002  0.0006  0.0000  0.0000  0.0000  0.0000  0.0000 </r>
        <r>  0.0007  0.0001  0.0007  0.0004  0.0000  0.0000  0.0000  0.0000  0.0000 </r>
        <r>  0.0005  0.0001  0.0023  0.0005  0.0000  0.0000  0.0000  0.0000  0.0000 </r>
        <r>  0.0005  0.0001  0.0010  0.0001  0.0000  0.0000  0.0000  0.0000  0.0000 </r>
        <r>  0.0005  0.0008  0.0004  0.0003  0.0000  0.0000  0.0000  0.0000  0.0000 </r>
        <r>  0.0003  0.0023  0.0008  0.0044  0.0000  0.0000  0.0000  0.0000  0.0000 </r>
        <r>  0.0010  0.0006  0.0001  0.0002  0.0000  0.0000  0.0000  0.0000  0.0000 </r>
        <r>  0.0011  0.0002  0.0000  0.0002  0.0000  0.0000  0.0000  0.0000  0.0000 </r>
        <r>  0.0011  0.0001  0.0004  0.0009  0.0000  0.0000  0.0000  0.0000  0.0000 </r>
        <r>  0.0004  0.0007  0.0000  0.0014  0.0000  0.0000  0.0000  0.0000  0.0000 </r>
        <r>  0.0002  0.0006  0.0004  0.0001  0.0000  0.0000  0.0000  0.0000  0.0000 </r>
        <r>  0.0000  0.0003  0.0000  0.0010  0.0000  0.0000  0.0000  0.0000  0.0000 </r>
        <r>  0.0016  0.0005  0.0004  0.0012  0.0000  0.0000  0.0000  0.0000  0.0000 </r>
       </set>
       <set comment="band 184">
        <r>  0.0000  0.0001  0.0002  0.0011  0.0000  0.0000  0.0000  0.0000  0.0000 </r>
        <r>  0.0015  0.0009  0.0038  0.0011  0.0000  0.0000  0.0000  0.0000  0.0000 </r>
        <r>  0.0002  0.0007  0.0001  0.0006  0.0000  0.0000  0.0000  0.0000  0.0000 </r>
        <r>  0.0010  0.0002  0.0000  0.0005  0.0000  0.0000  0.0000  0.0000  0.0000 </r>
        <r>  0.0010  0.0001  0.0002  0.0000  0.0000  0.0000  0.0000  0.0000  0.0000 </r>
        <r>  0.0001  0.0001  0.0006  0.0042  0.0000  0.0000  0.0000  0.0000  0.0000 </r>
        <r>  0.0009  0.0011  0.0019  0.0003  0.0000  0.0000  0.0000  0.0000  0.0000 </r>
        <r>  0.0001  0.0001  0.0005  0.0000  0.0000  0.0000  0.0000  0.0000  0.0000 </r>
        <r>  0.0003  0.0002  0.0000  0.0005  0.0000  0.0000  0.0000  0.0000  0.0000 </r>
        <r>  0.0002  0.0003  0.0001  0.0001  0.0000  0.0000  0.0000  0.0000  0.0000 </r>
        <r>  0.0011  0.0008  0.0002  0.0000  0.0000  0.0000  0.0000  0.0000  0.0000 </r>
        <r>  0.0000  0.0001  0.0000  0.0001  0.0000  0.0000  0.0000  0.0000  0.0000 </r>
        <r>  0.0001  0.0005  0.0008  0.0012  0.0000  0.0000  0.0000  0.0000  0.0000 </r>
        <r>  0.0006  0.0009  0.0001  0.0000  0.0000  0.0000  0.0000  0.0000  0.0000 </r>
        <r>  0.0005  0.0003  0.0002  0.0001  0.0000  0.0000  0.0000  0.0000  0.0000 </r>
        <r>  0.0005  0.0005  0.0001  0.0006  0.0000  0.0000  0.0000  0.0000  0.0000 </r>
        <r>  0.0004  0.0003  0.0012  0.0015  0.0000  0.0000  0.0000  0.0000  0.0000 </r>
        <r>  0.0002  0.0004  0.0003  0.0013  0.0000  0.0000  0.0000  0.0000  0.0000 </r>
        <r>  0.0007  0.0012  0.0002  0.0015  0.0000  0.0000  0.0000  0.0000  0.0000 </r>
        <r>  0.0001  0.0010  0.0026  0.0000  0.0000  0.0000  0.0000  0.0000  0.0000 </r>
        <r>  0.0004  0.0003  0.0004  0.0002  0.0000  0.0000  0.0000  0.0000  0.0000 </r>
        <r>  0.0005  0.0004  0.0020  0.0005  0.0000  0.0000  0.0000  0.0000  0.0000 </r>
        <r>  0.0002  0.0004  0.0002  0.0000  0.0000  0.0000  0.0000  0.0000  0.0000 </r>
        <r>  0.0002  0.0000  0.0003  0.0001  0.0000  0.0000  0.0000  0.0000  0.0000 </r>
        <r>  0.0003  0.0004  0.0001  0.0013  0.0000  0.0000  0.0000  0.0000  0.0000 </r>
        <r>  0.0010  0.0031  0.0052  0.0009  0.0000  0.0000  0.0000  0.0000  0.0000 </r>
        <r>  0.0003  0.0007  0.0027  0.0001  0.0000  0.0000  0.0000  0.0000  0.0000 </r>
        <r>  0.0003  0.0011  0.0004  0.0016  0.0000  0.0000  0.0000  0.0000  0.0000 </r>
        <r>  0.0007  0.0024  0.0004  0.0008  0.0000  0.0000  0.0000  0.0000  0.0000 </r>
        <r>  0.0002  0.0000  0.0003  0.0009  0.0000  0.0000  0.0000  0.0000  0.0000 </r>
        <r>  0.0007  0.0021  0.0026  0.0011  0.0000  0.0000  0.0000  0.0000  0.0000 </r>
        <r>  0.0001  0.0005  0.0002  0.0018  0.0000  0.0000  0.0000  0.0000  0.0000 </r>
        <r>  0.0004  0.0002  0.0001  0.0012  0.0000  0.0000  0.0000  0.0000  0.0000 </r>
        <r>  0.0009  0.0014  0.0013  0.0004  0.0000  0.0000  0.0000  0.0000  0.0000 </r>
        <r>  0.0004  0.0006  0.0031  0.0013  0.0000  0.0000  0.0000  0.0000  0.0000 </r>
        <r>  0.0002  0.0027  0.0000  0.0005  0.0000  0.0000  0.0000  0.0000  0.0000 </r>
        <r>  0.0002  0.0004  0.0007  0.0001  0.0000  0.0000  0.0000  0.0000  0.0000 </r>
        <r>  0.0006  0.0011  0.0002  0.0002  0.0000  0.0000  0.0000  0.0000  0.0000 </r>
        <r>  0.0009  0.0003  0.0007  0.0063  0.0000  0.0000  0.0000  0.0000  0.0000 </r>
        <r>  0.0003  0.0005  0.0003  0.0003  0.0000  0.0000  0.0000  0.0000  0.0000 </r>
        <r>  0.0023  0.0001  0.0006  0.0006  0.0000  0.0000  0.0000  0.0000  0.0000 </r>
        <r>  0.0006  0.0004  0.0023  0.0007  0.0000  0.0000  0.0000  0.0000  0.0000 </r>
        <r>  0.0003  0.0020  0.0003  0.0014  0.0000  0.0000  0.0000  0.0000  0.0000 </r>
        <r>  0.0001  0.0012  0.0001  0.0000  0.0000  0.0000  0.0000  0.0000  0.0000 </r>
        <r>  0.0001  0.0001  0.0002  0.0033  0.0000  0.0000  0.0000  0.0000  0.0000 </r>
        <r>  0.0003  0.0004  0.0002  0.0005  0.0000  0.0000  0.0000  0.0000  0.0000 </r>
        <r>  0.0001  0.0004  0.0019  0.0011  0.0000  0.0000  0.0000  0.0000  0.0000 </r>
        <r>  0.0005  0.0016  0.0019  0.0000  0.0000  0.0000  0.0000  0.0000  0.0000 </r>
        <r>  0.0024  0.0005  0.0029  0.0010  0.0000  0.0000  0.0000  0.0000  0.0000 </r>
        <r>  0.0001  0.0004  0.0002  0.0001  0.0000  0.0000  0.0000  0.0000  0.0000 </r>
        <r>  0.0006  0.0003  0.0001  0.0004  0.0000  0.0000  0.0000  0.0000  0.0000 </r>
        <r>  0.0001  0.0017  0.0001  0.0002  0.0000  0.0000  0.0000  0.0000  0.0000 </r>
        <r>  0.0009  0.0006  0.0001  0.0013  0.0000  0.0000  0.0000  0.0000  0.0000 </r>
        <r>  0.0016  0.0015  0.0009  0.0003  0.0000  0.0000  0.0000  0.0000  0.0000 </r>
        <r>  0.0008  0.0008  0.0000  0.0004  0.0000  0.0000  0.0000  0.0000  0.0000 </r>
        <r>  0.0000  0.0004  0.0003  0.0000  0.0000  0.0000  0.0000  0.0000  0.0000 </r>
        <r>  0.0002  0.0039  0.0013  0.0008  0.0000  0.0000  0.0000  0.0000  0.0000 </r>
        <r>  0.0010  0.0013  0.0037  0.0000  0.0000  0.0000  0.0000  0.0000  0.0000 </r>
        <r>  0.0003  0.0014  0.0005  0.0001  0.0000  0.0000  0.0000  0.0000  0.0000 </r>
        <r>  0.0001  0.0011  0.0010  0.0003  0.0000  0.0000  0.0000  0.0000  0.0000 </r>
        <r>  0.0001  0.0018  0.0020  0.0001  0.0000  0.0000  0.0000  0.0000  0.0000 </r>
        <r>  0.0005  0.0001  0.0013  0.0008  0.0000  0.0000  0.0000  0.0000  0.0000 </r>
        <r>  0.0009  0.0000  0.0000  0.0002  0.0000  0.0000  0.0000  0.0000  0.0000 </r>
        <r>  0.0005  0.0005  0.0003  0.0006  0.0000  0.0000  0.0000  0.0000  0.0000 </r>
        <r>  0.0006  0.0003  0.0014  0.0001  0.0000  0.0000  0.0000  0.0000  0.0000 </r>
       </set>
      </set>
     </set>
    </set>
   </array>
  </projected>
 </calculation>
 <structure name="finalpos" >
  <crystal>
   <varray name="basis" >
    <v>      10.25000000       0.00000000       0.00000000 </v>
    <v>       0.00000000      10.25000000       0.00000000 </v>
    <v>       0.00000000       0.00000000      12.35000000 </v>
   </varray>
   <i name="volume">   1297.52187500 </i>
   <varray name="rec_basis" >
    <v>       0.09756098       0.00000000       0.00000000 </v>
    <v>       0.00000000       0.09756098       0.00000000 </v>
    <v>       0.00000000       0.00000000       0.08097166 </v>
   </varray>
  </crystal>
  <varray name="positions" >
   <v>       0.63647707       0.87521366       0.98540891 </v>
   <v>       0.71921171       0.60331415       0.61893927 </v>
   <v>       0.22706732       0.12255902       0.06112300 </v>
   <v>       0.13082537       0.74780976       0.21081215 </v>
   <v>       0.28197854       0.18492683       0.31137490 </v>
   <v>       0.17173268       0.04925307       0.66685263 </v>
   <v>       0.70695317       0.57486537       0.23639352 </v>
   <v>       0.52148098       0.06006917       0.31376275 </v>
   <v>       0.97680000       0.91735220       0.59810526 </v>
   <v>       0.91163707       0.41025073       0.22019271 </v>
   <v>       0.42521366       0.97423610       0.52185911 </v>
   <v>       0.91825756       0.58623024       0.03715061 </v>
   <v>       0.00410039       0.36908000       0.71937490 </v>
   <v>       0.30527415       0.54403415       0.59357166 </v>
   <v>       0.60423122       0.21002146       0.00426497 </v>
   <v>       0.83521756       0.25807024       0.84867206 </v>
   <v>       0.64741268       0.53213463       0.98070445 </v>
   <v>       0.47813659       0.40965951       0.42847611 </v>
   <v>       0.49467122       0.67645659       0.13130931 </v>
   <v>       0.24721463       0.76492976       0.88464777 </v>
   <v>       0.64452878       0.28420683       0.21421862 </v>
   <v>       0.94335707       0.66243024       0.72460243 </v>
   <v>       0.01619824       0.39718829       0.45884211 </v>
   <v>       0.92373561       0.21313756       0.04541255 </v>
   <v>       0.70895317       0.13898732       0.44278866 </v>
   <v>       0.55451220       0.61436488       0.78207692 </v>
   <v>       0.65204780       0.86662537       0.19222996 </v>
   <v>       0.69019902       0.07354761       0.81240486 </v>
   <v>       0.57616683       0.24574146       0.61464453 </v>
   <v>       0.90627707       0.88234732       0.01057870 </v>
   <v>       0.30060098       0.62878537       0.32890526 </v>
   <v>       0.28601561       0.45828195       0.88560324 </v>
   <v>       0.08040771       0.41995512       0.97628340 </v>
   <v>       0.16393268       0.70405171       0.50148016 </v>
   <v>       0.98382439       0.62075317       0.45418947 </v>
   <v>       0.37746732       0.11718927       0.82038866 </v>
   <v>       0.39925073       0.90016000       0.22346316 </v>
   <v>       0.45966439       0.91608293       0.81339271 </v>
   <v>       0.20982537       0.90094049       0.50697490 </v>
   <v>       0.85485854       0.76158146       0.53145101 </v>
   <v>       0.02454410       0.19851024       0.57997409 </v>
   <v>       0.51950049       0.60595805       0.32721377 </v>
   <v>       0.39805756       0.61886049       0.94833198 </v>
   <v>       0.20890146       0.36362244       0.13095223 </v>
   <v>       0.17880683       0.55096293       0.75882510 </v>
   <v>       0.74900976       0.39735902       0.07648704 </v>
   <v>       0.77550829       0.54788098       0.82004049 </v>
   <v>       0.06023327       0.26563024       0.89086640 </v>
   <v>       0.95870537       0.61690634       0.29618462 </v>
   <v>       0.07395854       0.22938634       0.18885911 </v>
   <v>       0.75920585       0.06429141       0.97197571 </v>
   <v>       0.84461073       0.10467122       0.60651417 </v>
   <v>       0.45406927       0.18126049       0.46592874 </v>
   <v>       0.72032195       0.72596098       0.08412146 </v>
   <v>       0.77720195       0.38212488       0.71413360 </v>
   <v>       0.43102439       0.18142732       0.16196356 </v>
   <v>       0.53182732       0.24673366       0.80740324 </v>
   <v>       0.57257951       0.86249854       0.70686316 </v>
   <v>       0.42195415       0.98346341       0.08680000 </v>
   <v>       0.22327317       0.45643805       0.42174656 </v>
   <v>       0.51448488       0.49819220       0.59908502 </v>
   <v>       0.80806049       0.32534927       0.37638947 </v>
   <v>       0.12319805       0.85748488       0.74039676 </v>
   <v>       0.73325659       0.05238302       0.28389231 </v>
   <v>       0.08036312       0.72797366       0.01572470 </v>
  </varray>
 </structure>
</modeling>
