LPSC                                    
           1
    10.250000    0.000000    0.000000
     0.000000   10.250000    0.000000
     0.000000    0.000000   12.350000
   Li   P    S    Cl
  30   5  25   5
Direct configuration=     1
   0.63647707  0.87521366  0.98540891
   0.71921171  0.60331415  0.61893927
   0.22706732  0.12255902  0.06112300
   0.13082537  0.74780976  0.21081215
   0.28197854  0.18492683  0.31137490
   0.17173268  0.04925307  0.66685263
   0.70695317  0.57486537  0.23639352
   0.52148098  0.06006917  0.31376275
   0.97680000  0.91735220  0.59810526
   0.91163707  0.41025073  0.22019271
   0.42521366  0.97423610  0.52185911
   0.91825756  0.58623024  0.03715061
   0.00410039  0.36908000  0.71937490
   0.30527415  0.54403415  0.59357166
   0.60423122  0.21002146  0.00426497
   0.83521756  0.25807024  0.84867206
   0.64741268  0.53213463  0.98070445
   0.47813659  0.40965951  0.42847611
   0.49467122  0.67645659  0.13130931
   0.24721463  0.76492976  0.88464777
   0.64452878  0.28420683  0.21421862
   0.94335707  0.66243024  0.72460243
   0.01619824  0.39718829  0.45884211
   0.92373561  0.21313756  0.04541255
   0.70895317  0.13898732  0.44278866
   0.55451220  0.61436488  0.78207692
   0.65204780  0.86662537  0.19222996
   0.69019902  0.07354761  0.81240486
   0.57616683  0.24574146  0.61464453
   0.90627707  0.88234732  0.01057870
   0.30060098  0.62878537  0.32890526
   0.28601561  0.45828195  0.88560324
   0.08040771  0.41995512  0.97628340
   0.16393268  0.70405171  0.50148016
   0.98382439  0.62075317  0.45418947
   0.37746732  0.11718927  0.82038866
   0.39925073  0.90016000  0.22346316
   0.45966439  0.91608293  0.81339271
   0.20982537  0.90094049  0.50697490
   0.85485854  0.76158146  0.53145101
   0.02454410  0.19851024  0.57997409
   0.51950049  0.60595805  0.32721377
   0.39805756  0.61886049  0.94833198
   0.20890146  0.36362244  0.13095223
   0.17880683  0.55096293  0.75882510
   0.74900976  0.39735902  0.07648704
   0.77550829  0.54788098  0.82004049
   0.06023327  0.26563024  0.89086640
   0.95870537  0.61690634  0.29618462
   0.07395854  0.22938634  0.18885911
   0.75920585  0.06429141  0.97197571
   0.84461073  0.10467122  0.60651417
   0.45406927  0.18126049  0.46592874
   0.72032195  0.72596098  0.08412146
   0.77720195  0.38212488  0.71413360
   0.43102439  0.18142732  0.16196356
   0.53182732  0.24673366  0.80740324
   0.57257951  0.86249854  0.70686316
   0.42195415  0.98346341  0.08680000
   0.22327317  0.45643805  0.42174656
   0.51448488  0.49819220  0.59908502
   0.80806049  0.32534927  0.37638947
   0.12319805  0.85748488  0.74039676
   0.73325659  0.05238302  0.28389231
   0.08036312  0.72797366  0.01572470
