       N       E                     dE             d eps       ncg     rms          rms(c)
RMM:   1    -0.113351360309E+04   -0.11335E+04   -0.14692E+05   184   0.131E+03
RMM:   2     0.742672832770E+03    0.18762E+04   -0.23042E+04   184   0.254E+02
RMM:   3     0.239289662223E+03   -0.50338E+03   -0.73253E+03   184   0.135E+02
RMM:   4    -0.174442177608E+02   -0.25673E+03   -0.25857E+03   184   0.979E+01
RMM:   5    -0.129404893908E+03   -0.11196E+03   -0.10170E+03   184   0.633E+01
RMM:   6    -0.175257826252E+03   -0.45853E+02   -0.42957E+02   184   0.467E+01
RMM:   7    -0.197277039279E+03   -0.22019E+02   -0.21228E+02   184   0.355E+01
RMM:   8    -0.210206283240E+03   -0.12929E+02   -0.12191E+02   184   0.304E+01
RMM:   9    -0.244491198046E+03   -0.34285E+02   -0.34044E+02   668   0.265E+01
RMM:  10    -0.261876535357E+03   -0.17385E+02   -0.17142E+02   664   0.170E+01
RMM:  11    -0.265862661017E+03   -0.39861E+01   -0.40392E+01   643   0.103E+01
RMM:  12    -0.268025670843E+03   -0.21630E+01   -0.21597E+01   633   0.757E+00    0.381E+01
RMM:  13    -0.259355326372E+03    0.86703E+01   -0.22034E+01   493   0.742E+00    0.248E+01
RMM:  14    -0.258356027289E+03    0.99930E+00   -0.18612E+01   516   0.667E+00    0.656E+00
RMM:  15    -0.258476260025E+03   -0.12023E+00   -0.40471E+00   585   0.385E+00    0.165E+00
RMM:  16    -0.258598516667E+03   -0.12226E+00   -0.15455E+00   630   0.248E+00    0.136E+00
RMM:  17    -0.258686465492E+03   -0.87949E-01   -0.84695E-01   612   0.180E+00    0.528E-01
RMM:  18    -0.258738878853E+03   -0.52413E-01   -0.52369E-01   608   0.134E+00    0.158E-01
RMM:  19    -0.258774894217E+03   -0.36015E-01   -0.36871E-01   620   0.102E+00    0.191E-01
RMM:  20    -0.258790760195E+03   -0.15866E-01   -0.16341E-01   636   0.749E-01    0.266E-01
RMM:  21    -0.258800708058E+03   -0.99479E-02   -0.10904E-01   613   0.586E-01    0.400E-01
RMM:  22    -0.258805641114E+03   -0.49331E-02   -0.67263E-02   621   0.473E-01    0.537E-01
RMM:  23    -0.258808731575E+03   -0.30905E-02   -0.39562E-02   599   0.389E-01    0.329E-01
RMM:  24    -0.258810463527E+03   -0.17320E-02   -0.25976E-02   638   0.293E-01    0.387E-01
RMM:  25    -0.258812169711E+03   -0.17062E-02   -0.16248E-02   617   0.249E-01    0.246E-01
RMM:  26    -0.258813711265E+03   -0.15416E-02   -0.14497E-02   536   0.238E-01    0.153E-01
RMM:  27    -0.258814302569E+03   -0.59130E-03   -0.62410E-03   638   0.151E-01    0.128E-01
RMM:  28    -0.258814667025E+03   -0.36446E-03   -0.49287E-03   598   0.126E-01    0.738E-02
RMM:  29    -0.258814963190E+03   -0.29616E-03   -0.33878E-03   609   0.992E-02    0.655E-02
RMM:  30    -0.258815160721E+03   -0.19753E-03   -0.20169E-03   579   0.793E-02    0.635E-02
RMM:  31    -0.258815272154E+03   -0.11143E-03   -0.13198E-03   580   0.643E-02    0.555E-02
RMM:  32    -0.258815346888E+03   -0.74734E-04   -0.93702E-04   592   0.564E-02    0.345E-02
RMM:  33    -0.258815405262E+03   -0.58374E-04   -0.66931E-04   581   0.441E-02    0.278E-02
RMM:  34    -0.258815432801E+03   -0.27539E-04   -0.43003E-04   580   0.367E-02    0.233E-02
RMM:  35    -0.258815464947E+03   -0.32146E-04   -0.37058E-04   551   0.327E-02    0.342E-03
RMM:  36    -0.258815494506E+03   -0.29559E-04   -0.26964E-04   567   0.262E-02    0.503E-03
RMM:  37    -0.258815506619E+03   -0.12113E-04   -0.15157E-04   502   0.211E-02    0.356E-03
RMM:  38    -0.258815516676E+03   -0.10058E-04   -0.10679E-04   462   0.176E-02    0.405E-03
RMM:  39    -0.258815523866E+03   -0.71894E-05   -0.76615E-05   449   0.151E-02    0.472E-03
RMM:  40    -0.258815528624E+03   -0.47578E-05   -0.51547E-05   443   0.130E-02    0.553E-03
RMM:  41    -0.258815530789E+03   -0.21658E-05   -0.35702E-05   373   0.115E-02    0.467E-03
RMM:  42    -0.258815532488E+03   -0.16989E-05   -0.23634E-05   349   0.104E-02    0.447E-03
RMM:  43    -0.258815534075E+03   -0.15864E-05   -0.20515E-05   392   0.966E-03    0.448E-03
RMM:  44    -0.258815534740E+03   -0.66499E-06   -0.11833E-05   315   0.885E-03    0.419E-03
RMM:  45    -0.258815535081E+03   -0.34118E-06   -0.97342E-06   350   0.845E-03
   1 F= -.25881554E+03 E0= -.25881554E+03  d E =-.258816E+03
