 vasp.5.4.4.18Apr17-6-g9f103f2a35 (build Jan 22 2020 12:49:05) complex          
  
 executed on Bebop BDW IPS19.0.5  date 2022.09.29  09:58:28
 running on   64 total cores
 distrk:  each k-point on   64 cores,    1 groups
 distr:  one band on NCORES_PER_BAND=   8 cores,    8 groups


--------------------------------------------------------------------------------------------------------


 INCAR:
 POTCAR:    PAW_PBE Li_sv 10Sep2004               
 POTCAR:    PAW_PBE P 06Sep2000                   
 POTCAR:    PAW_PBE S 06Sep2000                   
 POTCAR:    PAW_PBE Cl 06Sep2000                  
 POTCAR:    PAW_PBE Li_sv 10Sep2004               
   VRHFIN =Li: 1s2s2p                                                           
   LEXCH  = PE                                                                  
   EATOM  =   202.7858 eV,   14.9043 Ry                                         
                                                                                
   TITEL  = PAW_PBE Li_sv 10Sep2004                                             
   LULTRA =        F    use ultrasoft PP ?                                      
   IUNSCR =        0    unscreen: 0-lin 1-nonlin 2-no                           
   RPACOR =    0.000    partial core radius                                     
   POMASS =    7.010; ZVAL   =    3.000    mass and valenz                      
   RCORE  =    1.700    outmost cutoff radius                                   
   RWIGS  =    2.050; RWIGS  =    1.085    wigner-seitz radius (au A)           
   ENMAX  =  499.034; ENMIN  =  374.276 eV                                      
   ICORE  =        2    local potential                                         
   LCOR   =        T    correct aug charges                                     
   LPAW   =        T    paw PP                                                  
   EAUG   =  628.945                                                            
   RMAX   =    1.732    core radius for proj-oper                               
   RAUG   =    1.300    factor for augmentation sphere                          
   RDEP   =    1.728    radius for radial grids                                 
   RDEPT  =    1.329    core radius for aug-charge                              
                                                                                
   Atomic configuration                                                         
    4 entries                                                                   
     n  l   j            E        occ.                                          
     1  0  0.50       -51.8549   2.0000                                         
     2  0  0.50        -2.8742   1.0000                                         
     2  1  0.50        -1.3606   0.0000                                         
     3  2  1.50        -1.3606   0.0000                                         
   Description                                                                  
     l       E           TYP  RCUT    TYP  RCUT                                 
     0    -51.8548813     23  1.400                                             
     0     -2.8742052     23  1.700                                             
     1     -1.3605826     23  1.400                                             
     2     -1.3605826     23  1.400                                             
  local pseudopotential read in
  atomic valenz-charges read in
  non local Contribution for L=           0  read in
    real space projection operators read in
  non local Contribution for L=           0  read in
    real space projection operators read in
  non local Contribution for L=           1  read in
    real space projection operators read in
    PAW grid and wavefunctions read in
 
   number of l-projection  operators is LMAX  =           3
   number of lm-projection operators is LMMAX =           5
 
 POTCAR:    PAW_PBE P 06Sep2000                   
   VRHFIN =P : s2p3                                                             
   LEXCH  = PE                                                                  
   EATOM  =   176.0430 eV,   12.9388 Ry                                         
                                                                                
   TITEL  = PAW_PBE P 06Sep2000                                                 
   LULTRA =        F    use ultrasoft PP ?                                      
   IUNSCR =        1    unscreen: 0-lin 1-nonlin 2-no                           
   RPACOR =    1.500    partial core radius                                     
   POMASS =   30.974; ZVAL   =    5.000    mass and valenz                      
   RCORE  =    1.900    outmost cutoff radius                                   
   RWIGS  =    2.330; RWIGS  =    1.233    wigner-seitz radius (au A)           
   ENMAX  =  255.040; ENMIN  =  191.280 eV                                      
   ICORE  =        2    local potential                                         
   LCOR   =        T    correct aug charges                                     
   LPAW   =        T    paw PP                                                  
   EAUG   =  342.924                                                            
   DEXC   =    0.000                                                            
   RMAX   =    1.935    core radius for proj-oper                               
   RAUG   =    1.300    factor for augmentation sphere                          
   RDEP   =    1.931    radius for radial grids                                 
   RDEPT  =    1.794    core radius for aug-charge                              
                                                                                
   Atomic configuration                                                         
    6 entries                                                                   
     n  l   j            E        occ.                                          
     1  0  0.50     -2084.0982   2.0000                                         
     2  0  0.50      -173.9859   2.0000                                         
     2  1  1.50      -124.4865   6.0000                                         
     3  0  0.50       -13.9692   2.0000                                         
     3  1  0.50        -5.5067   3.0000                                         
     3  2  1.50        -5.4423   0.0000                                         
   Description                                                                  
     l       E           TYP  RCUT    TYP  RCUT                                 
     0    -13.9691527     23  1.900                                             
     0    -11.7794650     23  1.900                                             
     1     -5.5066937     23  1.900                                             
     1     -0.2556953     23  1.900                                             
     2     -5.4423304     23  1.900                                             
  local pseudopotential read in
  partial core-charges read in
  partial kinetic energy density read in
  atomic valenz-charges read in
  non local Contribution for L=           0  read in
    real space projection operators read in
  non local Contribution for L=           0  read in
    real space projection operators read in
  non local Contribution for L=           1  read in
    real space projection operators read in
  non local Contribution for L=           1  read in
    real space projection operators read in
    PAW grid and wavefunctions read in
 
   number of l-projection  operators is LMAX  =           4
   number of lm-projection operators is LMMAX =           8
 
 POTCAR:    PAW_PBE S 06Sep2000                   
   VRHFIN =S : s2p4                                                             
   LEXCH  = PE                                                                  
   EATOM  =   276.8230 eV,   20.3459 Ry                                         
                                                                                
   TITEL  = PAW_PBE S 06Sep2000                                                 
   LULTRA =        F    use ultrasoft PP ?                                      
   IUNSCR =        1    unscreen: 0-lin 1-nonlin 2-no                           
   RPACOR =    1.500    partial core radius                                     
   POMASS =   32.066; ZVAL   =    6.000    mass and valenz                      
   RCORE  =    1.900    outmost cutoff radius                                   
   RWIGS  =    2.200; RWIGS  =    1.164    wigner-seitz radius (au A)           
   ENMAX  =  258.689; ENMIN  =  194.016 eV                                      
   ICORE  =        2    local potential                                         
   LCOR   =        T    correct aug charges                                     
   LPAW   =        T    paw PP                                                  
   EAUG   =  335.092                                                            
   DEXC   =    0.000                                                            
   RMAX   =    1.942    core radius for proj-oper                               
   RAUG   =    1.300    factor for augmentation sphere                          
   RDEP   =    1.954    radius for radial grids                                 
   RDEPT  =    1.744    core radius for aug-charge                              
                                                                                
   Atomic configuration                                                         
    6 entries                                                                   
     n  l   j            E        occ.                                          
     1  0  0.50     -2405.8406   2.0000                                         
     2  0  0.50      -211.7007   2.0000                                         
     2  1  1.50      -156.4958   6.0000                                         
     3  0  0.50       -17.2562   2.0000                                         
     3  1  0.50        -7.0085   4.0000                                         
     3  2  1.50        -6.8029   0.0000                                         
   Description                                                                  
     l       E           TYP  RCUT    TYP  RCUT                                 
     0    -17.2561641     23  1.900                                             
     0    -15.8743224     23  1.900                                             
     1     -7.0085400     23  1.900                                             
     1     -2.7779785     23  1.900                                             
     2     -6.8029130     23  1.900                                             
  local pseudopotential read in
  partial core-charges read in
  partial kinetic energy density read in
  atomic valenz-charges read in
  non local Contribution for L=           0  read in
    real space projection operators read in
  non local Contribution for L=           0  read in
    real space projection operators read in
  non local Contribution for L=           1  read in
    real space projection operators read in
  non local Contribution for L=           1  read in
    real space projection operators read in
    PAW grid and wavefunctions read in
 
   number of l-projection  operators is LMAX  =           4
   number of lm-projection operators is LMMAX =           8
 
 POTCAR:    PAW_PBE Cl 06Sep2000                  
   VRHFIN =Cl: s2p5                                                             
   LEXCH  = PE                                                                  
   EATOM  =   409.7259 eV,   30.1140 Ry                                         
                                                                                
   TITEL  = PAW_PBE Cl 06Sep2000                                                
   LULTRA =        F    use ultrasoft PP ?                                      
   IUNSCR =        1    unscreen: 0-lin 1-nonlin 2-no                           
   RPACOR =    1.500    partial core radius                                     
   POMASS =   35.453; ZVAL   =    7.000    mass and valenz                      
   RCORE  =    1.900    outmost cutoff radius                                   
   RWIGS  =    2.100; RWIGS  =    1.111    wigner-seitz radius (au A)           
   ENMAX  =  262.472; ENMIN  =  196.854 eV                                      
   ICORE  =        2    local potential                                         
   LCOR   =        T    correct aug charges                                     
   LPAW   =        T    paw PP                                                  
   EAUG   =  356.192                                                            
   DEXC   =    0.000                                                            
   RMAX   =    1.945    core radius for proj-oper                               
   RAUG   =    1.300    factor for augmentation sphere                          
   RDEP   =    2.020    radius for radial grids                                 
   RDEPT  =    1.678    core radius for aug-charge                              
                                                                                
   Atomic configuration                                                         
    6 entries                                                                   
     n  l   j            E        occ.                                          
     1  0  0.50     -2751.1850   2.0000                                         
     2  0  0.50      -252.6861   2.0000                                         
     2  1  1.50      -191.6157   6.0000                                         
     3  0  0.50       -20.6916   2.0000                                         
     3  1  0.50        -8.5949   5.0000                                         
     3  2  1.50        -8.1635   0.0000                                         
   Description                                                                  
     l       E           TYP  RCUT    TYP  RCUT                                 
     0    -20.6915656     23  1.900                                             
     0    -22.0521482     23  1.900                                             
     1     -8.5948577     23  1.900                                             
     1     -5.3847331     23  1.900                                             
     2     -8.1634956     23  1.900                                             
  local pseudopotential read in
  partial core-charges read in
  partial kinetic energy density read in
  atomic valenz-charges read in
  non local Contribution for L=           0  read in
    real space projection operators read in
  non local Contribution for L=           0  read in
    real space projection operators read in
  non local Contribution for L=           1  read in
    real space projection operators read in
  non local Contribution for L=           1  read in
    real space projection operators read in
    PAW grid and wavefunctions read in
 
   number of l-projection  operators is LMAX  =           4
   number of lm-projection operators is LMMAX =           8
 

 ----------------------------------------------------------------------------- 
|                                                                             |
|  ADVICE TO THIS USER RUNNING 'VASP/VAMP'   (HEAR YOUR MASTER'S VOICE ...):  |
|                                                                             |
|      You have a (more or less) 'large supercell' and for larger cells       |
|      it might be more efficient to use real space projection opertators     |
|      So try LREAL= Auto  in the INCAR   file.                               |
|      Mind:          For very  accurate calculation you might also keep the  |
|      reciprocal projection scheme          (i.e. LREAL=.FALSE.)             |
|                                                                             |
 ----------------------------------------------------------------------------- 

  PAW_PBE Li_sv 10Sep2004               :
 energy of atom  1       EATOM= -202.7858
 kinetic energy error for atom=    0.0143 (will be added to EATOM!!)
  PAW_PBE P 06Sep2000                   :
 energy of atom  2       EATOM= -176.0430
 kinetic energy error for atom=    0.0013 (will be added to EATOM!!)
  PAW_PBE S 06Sep2000                   :
 energy of atom  3       EATOM= -276.8230
 kinetic energy error for atom=    0.0020 (will be added to EATOM!!)
  PAW_PBE Cl 06Sep2000                  :
 energy of atom  4       EATOM= -409.7259
 kinetic energy error for atom=    0.0030 (will be added to EATOM!!)
 
 
 POSCAR: New POSCAR file                         
  positions in cartesian coordinates
  No initial velocities read in
 exchange correlation table for  LEXCH =        8
   RHO(1)=    0.500       N(1)  =     2000
   RHO(2)=  100.500       N(2)  =     4000
 


--------------------------------------------------------------------------------------------------------


 ion  position               nearest neighbor table
   1  0.627  0.895  0.005-  54 2.13  51 2.33  59 2.66
   2  0.732  0.569  0.612-  61 2.25  40 2.31  55 2.43  47 2.56
   3  0.230  0.174  0.029-  48 2.32  50 2.47  59 2.61  44 2.62
   4  0.154  0.726  0.206-  65 2.38  49 2.46  31 2.47
   5  0.299  0.207  0.324-  53 2.58  60 2.59   8 2.59
   6  0.200  0.048  0.663-  63 2.31  41 2.50  36 2.53  39 2.68
   7  0.735  0.559  0.214-  54 2.34  46 2.55  49 2.58
   8  0.511  0.073  0.302-  53 2.29  56 2.36  64 2.47  37 2.51   5 2.59
   9  0.984  0.933  0.581-  40 2.41  63 2.44  52 2.49  39 2.54
  10  0.938  0.402  0.227-  62 2.44  46 2.49  50 2.52  49 2.68
  11  0.432  0.967  0.526-  53 2.35  39 2.53  58 2.62
  12  0.892  0.588  0.008-  65 2.53  33 2.65  46 2.65  47 2.68  54 2.68
  13  0.014  0.364  0.734-  55 2.20  41 2.47  48 2.51  45 2.63
  14  0.297  0.523  0.599-  45 2.21  61 2.36  60 2.56  34 2.60
  15  0.617  0.230  0.987-  57 2.38  46 2.48  56 2.55  51 2.58
  16  0.853  0.185  0.827-  51 2.22  28 2.29  55 2.52  48 2.56
  17  0.623  0.540  0.989-  54 2.34  43 2.51  46 2.56  47 2.62
  18  0.463  0.405  0.432-  60 2.28  53 2.37  61 2.47  42 2.50
  19  0.476  0.660  0.148-  42 2.38  54 2.39  27 2.56  43 2.62  37 2.67
  20  0.207  0.749  0.866-  63 2.42  65 2.44  45 2.47  43 2.57
  21  0.698  0.240  0.218-  46 2.33  62 2.42  64 2.44
  22  0.969  0.698  0.731-  63 2.38  40 2.59  45 2.63  47 2.66
  23  0.018  0.371  0.455-  60 2.44  41 2.47  62 2.52  35 2.58
  24  0.908  0.208  0.041-  46 2.24  51 2.34  48 2.46  50 2.59
  25  0.719  0.134  0.449-  64 2.32  52 2.35  62 2.44  53 2.46
  26  0.543  0.633  0.775-  47 2.48  61 2.48  58 2.49  43 2.63
  27  0.624  0.820  0.249-  54 2.32  64 2.47  19 2.56  37 2.59  42 2.68
  28  0.703  0.033  0.772-  16 2.29  51 2.40  52 2.57  57 2.61  58 2.64
  29  0.601  0.278  0.615-  61 2.37  53 2.46  57 2.51
  30  0.881  0.870  0.035-  65 2.26  51 2.30  54 2.56
  31  0.290  0.607  0.338-  60 2.09  42 2.13  34 2.35   4 2.47
  32  0.284  0.469  0.885-  43 2.06  45 2.18  33 2.29
  33  0.095  0.432  0.980-  48 2.16  44 2.17  32 2.29  12 2.65
  34  0.198  0.714  0.488-  39 1.98  31 2.35  35 2.39  14 2.60
  35  0.987  0.621  0.454-  49 2.08  40 2.09  34 2.39  23 2.58
  36  0.368  0.106  0.806-  57 2.09  38 2.11   6 2.53
  37  0.384  0.888  0.220-  59 2.14   8 2.51  27 2.59  19 2.67
  38  0.435  0.912  0.829-  36 2.11  58 2.16
  39  0.198  0.907  0.481-  34 1.98  11 2.53   9 2.54   6 2.68
  40  0.860  0.737  0.546-  35 2.09   2 2.31   9 2.41  22 2.59
  41  0.026  0.195  0.592-  52 2.09  23 2.47  13 2.47   6 2.50
  42  0.498  0.616  0.336-  31 2.13  19 2.38  18 2.50  27 2.68
  43  0.396  0.617  0.949-  32 2.06  17 2.51  20 2.57  19 2.62  26 2.63
  44  0.179  0.388  0.137-  50 2.10  33 2.17   3 2.62
  45  0.182  0.556  0.748-  32 2.18  14 2.21  20 2.47  22 2.63  13 2.63
  46  0.775  0.374  0.080-  24 2.24  21 2.33  15 2.48  10 2.49   7 2.55  17 2.56  12 2.65
  47  0.770  0.567  0.817-  55 2.00  26 2.48   2 2.56  17 2.62  22 2.66  12 2.68
  48  0.078  0.244  0.903-  33 2.16   3 2.32  24 2.46  13 2.51  16 2.56
  49  0.950  0.652  0.291-  35 2.08   4 2.46   7 2.58  10 2.68
  50  0.089  0.214  0.188-  44 2.10   3 2.47  10 2.52  24 2.59
  51  0.785  0.047  0.954-  16 2.22  30 2.30   1 2.33  24 2.34  28 2.40  15 2.58
  52  0.837  0.123  0.612-  41 2.09  25 2.35   9 2.49  28 2.57
  53  0.484  0.177  0.464-   8 2.29  11 2.35  18 2.37  25 2.46  29 2.46   5 2.58
  54  0.689  0.723  0.088-   1 2.13  27 2.32  17 2.34   7 2.34  19 2.39  30 2.56  12 2.68
  55  0.802  0.400  0.737-  47 2.00  13 2.20   2 2.43  16 2.52
  56  0.457  0.185  0.141-  59 2.02   8 2.36  15 2.55
  57  0.537  0.221  0.806-  36 2.09  15 2.38  29 2.51  28 2.61
  58  0.548  0.853  0.690-  38 2.16  26 2.49  11 2.62  28 2.64
  59  0.412  0.008  0.080-  56 2.02  37 2.14   3 2.61   1 2.66
  60  0.243  0.430  0.412-  31 2.09  18 2.28  23 2.44  14 2.56   5 2.59
  61  0.525  0.496  0.609-   2 2.25  14 2.36  29 2.37  18 2.47  26 2.48
  62  0.794  0.343  0.376-  21 2.42  10 2.44  25 2.44  23 2.52
  63  0.078  0.900  0.760-   6 2.31  22 2.38  20 2.42   9 2.44
  64  0.747  0.023  0.288-  25 2.32  21 2.44  27 2.47   8 2.47
  65  0.070  0.757  0.028-  30 2.26   4 2.38  20 2.44  12 2.53
 

IMPORTANT INFORMATION: All symmetrisations will be switched off!
NOSYMM: (Re-)initialisation of all symmetry stuff for point group C_1.

 
 
 KPOINTS: Regular mesh centered at Gamma          

Automatic generation of k-mesh.
Space group operators:
 irot       det(A)        alpha          n_x          n_y          n_z        tau_x        tau_y        tau_z
    1     1.000000     0.000000     1.000000     0.000000     0.000000     0.000000     0.000000     0.000000
 
 Subroutine IBZKPT returns following result:
 ===========================================
 
 Found      1 irreducible k-points:
 
 Following reciprocal coordinates:
            Coordinates               Weight
  0.000000  0.000000  0.000000      1.000000
 
 Following cartesian coordinates:
            Coordinates               Weight
  0.000000  0.000000  0.000000      1.000000
 


--------------------------------------------------------------------------------------------------------




 Dimension of arrays:
   k-points           NKPTS =      1   k-points in BZ     NKDIM =      1   number of bands    NBANDS=    184
   number of dos      NEDOS =    301   number of ions     NIONS =     65
   non local maximal  LDIM  =      4   non local SUM 2l+1 LMDIM =      8
   total plane-waves  NPLWV = 219520
   max r-space proj   IRMAX =      1   max aug-charges    IRDMAX=   5529
   dimension x,y,z NGX =    56 NGY =   56 NGZ =   70
   dimension x,y,z NGXF=   112 NGYF=  112 NGZF=  140
   support grid    NGXF=   112 NGYF=  112 NGZF=  140
   ions per type =              30   5  25   5
   NGX,Y,Z   is equivalent  to a cutoff of   9.08,  9.08,  9.42 a.u.
   NGXF,Y,Z  is equivalent  to a cutoff of  18.17, 18.17, 18.85 a.u.

 SYSTEM =  LPSC                                    
 POSCAR =  New POSCAR file                         

 Startparameter for this run:
   NWRITE =      2    write-flag & timer
   PREC   = normal    normal or accurate (medium, high low for compatibility)
   ISTART =      0    job   : 0-new  1-cont  2-samecut
   ICHARG =      2    charge: 1-file 2-atom 10-const
   ISPIN  =      1    spin polarized calculation?
   LNONCOLLINEAR =      F non collinear calculations
   LSORBIT =      F    spin-orbit coupling
   INIWAV =      1    electr: 0-lowe 1-rand  2-diag
   LASPH  =      F    aspherical Exc in radial PAW
   METAGGA=      F    non-selfconsistent MetaGGA calc.

 Electronic Relaxation 1
   ENCUT  =  500.0 eV  36.75 Ry    6.06 a.u.  18.69 18.69 22.52*2*pi/ulx,y,z
   ENINI  =  500.0     initial cutoff
   ENAUG  =  628.9 eV  augmentation charge cutoff
   NELM   =    100;   NELMIN=  2; NELMDL=-12     # of ELM steps 
   EDIFF  = 0.1E-05   stopping-criterion for ELM
   LREAL  =      F    real-space projection
   NLSPLINE    = F    spline interpolate recip. space projectors
   LCOMPAT=      F    compatible to vasp.4.4
   GGA_COMPAT  = T    GGA compatible to vasp.4.4-vasp.4.6
   LMAXPAW     = -100 max onsite density
   LMAXMIX     =    2 max onsite mixed and CHGCAR
   VOSKOWN=      0    Vosko Wilk Nusair interpolation
   ROPT   =    0.00000   0.00000   0.00000   0.00000
 Ionic relaxation
   EDIFFG = -.1E-01   stopping-criterion for IOM
   NSW    =      1    number of steps for IOM
   NBLOCK =      1;   KBLOCK =      1    inner block; outer block 
   IBRION =      2    ionic relax: 0-MD 1-quasi-New 2-CG
   NFREE  =      1    steps in history (QN), initial steepest desc. (CG)
   ISIF   =      2    stress and relaxation
   IWAVPR =     11    prediction:  0-non 1-charg 2-wave 3-comb
   ISYM   =      0    0-nonsym 1-usesym 2-fastsym
   LCORR  =      T    Harris-Foulkes like correction to forces

   POTIM  = 0.5000    time-step for ionic-motion
   TEIN   =    0.0    initial temperature
   TEBEG  =    0.0;   TEEND  =   0.0 temperature during run
   SMASS  =  -3.00    Nose mass-parameter (am)
   estimated Nose-frequenzy (Omega)   =  0.10E-29 period in steps =****** mass=  -0.240E-26a.u.
   SCALEE = 1.0000    scale energy and forces
   NPACO  =    256;   APACO  = 16.0  distance and # of slots for P.C.
   PSTRESS=    0.0 pullay stress

  Mass of Ions in am
   POMASS =   7.01 30.97 32.07 35.45
  Ionic Valenz
   ZVAL   =   3.00  5.00  6.00  7.00
  Atomic Wigner-Seitz radii
   RWIGS  =  -1.00 -1.00 -1.00 -1.00
  virtual crystal weights 
   VCA    =   1.00  1.00  1.00  1.00
   NELECT =     300.0000    total number of electrons
   NUPDOWN=      -1.0000    fix difference up-down

 DOS related values:
   EMIN   =  10.00;   EMAX   =-10.00  energy-range for DOS
   EFERMI =   0.00
   ISMEAR =     0;   SIGMA  =   0.05  broadening in eV -4-tet -1-fermi 0-gaus

 Electronic relaxation 2 (details)
   IALGO  =     48    algorithm
   LDIAG  =      T    sub-space diagonalisation (order eigenvalues)
   LSUBROT=      F    optimize rotation matrix (better conditioning)
   TURBO    =      0    0=normal 1=particle mesh
   IRESTART =      0    0=no restart 2=restart with 2 vectors
   NREBOOT  =      0    no. of reboots
   NMIN     =      0    reboot dimension
   EREF     =   0.00    reference energy to select bands
   IMIX   =      4    mixing-type and parameters
     AMIX     =   0.40;   BMIX     =  1.00
     AMIX_MAG =   1.60;   BMIX_MAG =  1.00
     AMIN     =   0.10
     WC   =   100.;   INIMIX=   1;  MIXPRE=   1;  MAXMIX= -45

 Intra band minimization:
   WEIMIN = 0.0010     energy-eigenvalue tresh-hold
   EBREAK =  0.14E-08  absolut break condition
   DEPER  =   0.30     relativ break condition  

   TIME   =   0.40     timestep for ELM

  volume/ion in A,a.u.               =      19.96       134.71
  Fermi-wavevector in a.u.,A,eV,Ry     =   1.004794  1.898785 13.736591  1.009611
  Thomas-Fermi vector in A             =   2.137432
 
 Write flags
   LWAVE        =      F    write WAVECAR
   LDOWNSAMPLE  =      F    k-point downsampling of WAVECAR
   LCHARG       =      F    write CHGCAR
   LVTOT        =      F    write LOCPOT, total local potential
   LVHAR        =      F    write LOCPOT, Hartree potential only
   LELF         =      F    write electronic localiz. function (ELF)
   LORBIT       =     11    0 simple, 1 ext, 2 COOP (PROOUT), +10 PAW based schemes


 Dipole corrections
   LMONO  =      F    monopole corrections only (constant potential shift)
   LDIPOL =      F    correct potential (dipole corrections)
   IDIPOL =      0    1-x, 2-y, 3-z, 4-all directions 
   EPSILON=  1.0000000 bulk dielectric constant

 Exchange correlation treatment:
   GGA     =    --    GGA type
   LEXCH   =     8    internal setting for exchange type
   VOSKOWN=      0    Vosko Wilk Nusair interpolation
   LHFCALC =     F    Hartree Fock is set to
   LHFONE  =     F    Hartree Fock one center treatment
   AEXX    =    0.0000 exact exchange contribution

 Linear response parameters
   LEPSILON=     F    determine dielectric tensor
   LRPA    =     F    only Hartree local field effects (RPA)
   LNABLA  =     F    use nabla operator in PAW spheres
   LVEL    =     F    velocity operator in full k-point grid
   LINTERFAST=   F  fast interpolation
   KINTER  =     0    interpolate to denser k-point grid
   CSHIFT  =0.1000    complex shift for real part using Kramers Kronig
   OMEGAMAX=  -1.0    maximum frequency
   DEG_THRESHOLD= 0.2000000E-02 threshold for treating states as degnerate
   RTIME   =   -0.100 relaxation time in fs
  (WPLASMAI=    0.000 imaginary part of plasma frequency in eV, 0.658/RTIME)
   DFIELD  = 0.0000000 0.0000000 0.0000000 field for delta impulse in time
 
 Orbital magnetization related:
   ORBITALMAG=     F  switch on orbital magnetization
   LCHIMAG   =     F  perturbation theory with respect to B field
   DQ        =  0.001000  dq finite difference perturbation B field
   LLRAUG    =     F  two centre corrections for induced B field



--------------------------------------------------------------------------------------------------------


 conjugate gradient relaxation of ions
 charge density and potential will be updated during run
 non-spin polarized calculation
 RMM-DIIS sequential band-by-band
 perform sub-space diagonalisation
    before iterative eigenvector-optimisation
 modified Broyden-mixing scheme, WC =      100.0
 initial mixing is a Kerker type mixing with AMIX =  0.4000 and BMIX =      1.0000
 Hartree-type preconditioning will be used
 using additional bands           34
 reciprocal scheme for non local part
 use partial core corrections
 calculate Harris-corrections to forces 
   (improved forces if not selfconsistent)
 use gradient corrections 
 use of overlap-Matrix (Vanderbilt PP)
 Gauss-broadening in eV      SIGMA  =   0.05


--------------------------------------------------------------------------------------------------------


  energy-cutoff  :      500.00
  volume of cell :     1297.52
      direct lattice vectors                 reciprocal lattice vectors
    10.250000000  0.000000000  0.000000000     0.097560976  0.000000000  0.000000000
     0.000000000 10.250000000  0.000000000     0.000000000  0.097560976  0.000000000
     0.000000000  0.000000000 12.350000000     0.000000000  0.000000000  0.080971660

  length of vectors
    10.250000000 10.250000000 12.350000000     0.097560976  0.097560976  0.080971660


 
 k-points in units of 2pi/SCALE and weight: Regular mesh centered at Gamma          
   0.00000000  0.00000000  0.00000000       1.000
 
 k-points in reciprocal lattice and weights: Regular mesh centered at Gamma          
   0.00000000  0.00000000  0.00000000       1.000
 
 position of ions in fractional coordinates (direct lattice) 
   0.62706244  0.89483707  0.00474717
   0.73201463  0.56912390  0.61189879
   0.22994439  0.17443415  0.02899466
   0.15400488  0.72559220  0.20580810
   0.29852683  0.20733951  0.32385344
   0.20027805  0.04847776  0.66294413
   0.73469854  0.55929951  0.21449069
   0.51114439  0.07256937  0.30170121
   0.98372683  0.93255902  0.58117247
   0.93840293  0.40242244  0.22742105
   0.43197171  0.96690634  0.52628664
   0.89188195  0.58840098  0.00802815
   0.01373132  0.36385951  0.73409150
   0.29651805  0.52304976  0.59932794
   0.61672488  0.23012000  0.98663158
   0.85278829  0.18470244  0.82690688
   0.62338829  0.53950244  0.98894737
   0.46277268  0.40461171  0.43203482
   0.47590537  0.66028098  0.14805344
   0.20749756  0.74940976  0.86628340
   0.69824683  0.24020780  0.21839028
   0.96934244  0.69773171  0.73138462
   0.01840449  0.37098634  0.45503725
   0.90828195  0.20773366  0.04071401
   0.71867122  0.13444780  0.44928745
   0.54258537  0.63273854  0.77496680
   0.62416878  0.81990341  0.24899028
   0.70336878  0.03304224  0.77189150
   0.60140585  0.27835805  0.61539028
   0.88078244  0.87017854  0.03536632
   0.29048293  0.60730049  0.33813603
   0.28368293  0.46926732  0.88482591
   0.09520098  0.43235122  0.97982186
   0.19750146  0.71374146  0.48787692
   0.98685854  0.62113268  0.45446559
   0.36841463  0.10564878  0.80551822
   0.38367512  0.88768488  0.21965587
   0.43451512  0.91220195  0.82858300
   0.19841463  0.90678634  0.48083077
   0.85982732  0.73686634  0.54551498
   0.02565434  0.19546244  0.59162105
   0.49762732  0.61615512  0.33619352
   0.39590439  0.61684683  0.94944130
   0.17859317  0.38844976  0.13715223
   0.18193561  0.55632488  0.74804534
   0.77474634  0.37432098  0.07997190
   0.77016390  0.56684000  0.81661538
   0.07782771  0.24354146  0.90259109
   0.94977171  0.65192390  0.29098785
   0.08878771  0.21442927  0.18794170
   0.78458244  0.04696917  0.95354656
   0.83698439  0.12258634  0.61175628
   0.48357463  0.17725171  0.46354575
   0.68874537  0.72297951  0.08758462
   0.80210634  0.40013366  0.73718462
   0.45715707  0.18511220  0.14092470
   0.53658732  0.22124780  0.80562591
   0.54787512  0.85303024  0.68973765
   0.41221366  0.00818782  0.07974057
   0.24297951  0.42991610  0.41217814
   0.52463122  0.49636976  0.60939109
   0.79360000  0.34266829  0.37626154
   0.07849707  0.89975707  0.75999919
   0.74652293  0.02250556  0.28761862
   0.06993366  0.75744195  0.02782745
 
 position of ions in cartesian coordinates  (Angst):
   6.42739000  9.17208000  0.05862750
   7.50315000  5.83352000  7.55695000
   2.35693000  1.78795000  0.35808400
   1.57855000  7.43732000  2.54173000
   3.05990000  2.12523000  3.99959000
   2.05285000  0.49689700  8.18736000
   7.53066000  5.73282000  2.64896000
   5.23923000  0.74383600  3.72601000
  10.08320000  9.55873000  7.17748000
   9.61863000  4.12483000  2.80865000
   4.42771000  9.91079000  6.49964000
   9.14179000  6.03111000  0.09914760
   0.14074600  3.72956000  9.06603000
   3.03931000  5.36126000  7.40170000
   6.32143000  2.35873000 12.18490000
   8.74108000  1.89320000 10.21230000
   6.38973000  5.52990000 12.21350000
   4.74342000  4.14727000  5.33563000
   4.87803000  6.76788000  1.82846000
   2.12685000  7.68145000 10.69860000
   7.15703000  2.46213000  2.69712000
   9.93576000  7.15175000  9.03260000
   0.18864600  3.80261000  5.61971000
   9.30989000  2.12927000  0.50281800
   7.36638000  1.37809000  5.54870000
   5.56150000  6.48557000  9.57084000
   6.39773000  8.40401000  3.07503000
   7.20953000  0.33868300  9.53286000
   6.16441000  2.85317000  7.60007000
   9.02802000  8.91933000  0.43677400
   2.97745000  6.22483000  4.17598000
   2.90775000  4.80999000 10.92760000
   0.97581000  4.43160000 12.10080000
   2.02439000  7.31585000  6.02528000
  10.11530000  6.36661000  5.61265000
   3.77625000  1.08290000  9.94815000
   3.93267000  9.09877000  2.71275000
   4.45378000  9.35007000 10.23300000
   2.03375000  9.29456000  5.93826000
   8.81323000  7.55288000  6.73711000
   0.26295700  2.00349000  7.30652000
   5.10068000  6.31559000  4.15199000
   4.05802000  6.32268000 11.72560000
   1.83058000  3.98161000  1.69383000
   1.86484000  5.70233000  9.23836000
   7.94115000  3.83679000  0.98765300
   7.89418000  5.81011000 10.08520000
   0.79773400  2.49630000 11.14700000
   9.73516000  6.68222000  3.59370000
   0.91007400  2.19790000  2.32108000
   8.04197000  0.48143400 11.77630000
   8.57909000  1.25651000  7.55519000
   4.95664000  1.81683000  5.72479000
   7.05964000  7.41054000  1.08167000
   8.22159000  4.10137000  9.10423000
   4.68586000  1.89740000  1.74042000
   5.50002000  2.26779000  9.94948000
   5.61572000  8.74356000  8.51826000
   4.22519000  0.08392520  0.98479600
   2.49054000  4.40664000  5.09040000
   5.37747000  5.08779000  7.52598000
   8.13440000  3.51235000  4.64683000
   0.80459500  9.22251000  9.38599000
   7.65186000  0.23068200  3.55209000
   0.71682000  7.76378000  0.34366900
 


--------------------------------------------------------------------------------------------------------


 k-point  1 :   0.0000 0.0000 0.0000  plane waves:   33049

 maximum and minimum number of plane-waves per node :      4138     4129

 maximum number of plane-waves:     33049
 maximum index in each direction: 
   IXMAX=   18   IYMAX=   18   IZMAX=   22
   IXMIN=  -18   IYMIN=  -18   IZMIN=  -22


 parallel 3D FFT for wavefunctions:
    minimum data exchange during FFTs selected (reduces bandwidth)
 parallel 3D FFT for charge:
    minimum data exchange during FFTs selected (reduces bandwidth)


 total amount of memory used by VASP MPI-rank0    42204. kBytes
=======================================================================

   base      :      30000. kBytes
   nonl-proj :       5360. kBytes
   fftplans  :       1886. kBytes
   grid      :       3386. kBytes
   one-center:         27. kBytes
   wavefun   :       1545. kBytes
 
     INWAV:  cpu time    0.0001: real time    0.0001
 Broyden mixing: mesh for mixing (old mesh)
   NGX = 37   NGY = 37   NGZ = 45
  (NGX  =112   NGY  =112   NGZ  =140)
  gives a total of  61605 points

 initial charge density was supplied:
 charge density of overlapping atoms calculated
 number of electron     300.0000000 magnetization 
 keeping initial charge density in first step


--------------------------------------------------------------------------------------------------------


 Maximum index for augmentation-charges          349 (set IRDMAX)


--------------------------------------------------------------------------------------------------------


 First call to EWALD:  gamma=   0.163
 Maximum number of real-space cells 3x 3x 2
 Maximum number of reciprocal cells 3x 3x 3

    FEWALD:  cpu time    0.0086: real time    0.0095


--------------------------------------- Iteration      1(   1)  ---------------------------------------


    POTLOK:  cpu time    0.0874: real time    0.1055
    SETDIJ:  cpu time    0.0159: real time    0.0172
    EDDIAG:  cpu time    0.2472: real time    0.2623
  RMM-DIIS:  cpu time    0.3471: real time    0.3478
    ORTHCH:  cpu time    0.0215: real time    0.0215
       DOS:  cpu time    0.0016: real time    0.0018
    --------------------------------------------
      LOOP:  cpu time    0.7209: real time    0.7564

 eigenvalue-minimisations  :   184
 total energy-change (2. order) :-0.1133514E+04  (-0.1469224E+05)
 number of electron     300.0000000 magnetization 
 augmentation part      300.0000000 magnetization 

 Free energy of the ion-electron system (eV)
  ---------------------------------------------------
  alpha Z        PSCENC =       256.70245505
  Ewald energy   TEWEN  =     -9917.49092602
  -Hartree energ DENC   =     -3348.92167946
  -exchange      EXHF   =         0.00000000
  -V(xc)+E(xc)   XCENC  =       791.82649936
  PAW double counting   =     10155.13001117   -10497.29644279
  entropy T*S    EENTRO =        -0.00265374
  eigenvalues    EBANDS =     -4505.95624156
  atomic energy  EATOM  =     15932.49537490
  Solvation  Ediel_sol  =         0.00000000
  ---------------------------------------------------
  free energy    TOTEN  =     -1133.51360309 eV

  energy without entropy =    -1133.51094934  energy(sigma->0) =    -1133.51227621


--------------------------------------------------------------------------------------------------------




--------------------------------------- Iteration      1(   2)  ---------------------------------------


    EDDIAG:  cpu time    0.1898: real time    0.1897
  RMM-DIIS:  cpu time    0.3344: real time    0.3341
    ORTHCH:  cpu time    0.0217: real time    0.0217
       DOS:  cpu time    0.0009: real time    0.0009
    --------------------------------------------
      LOOP:  cpu time    0.5468: real time    0.5463

 eigenvalue-minimisations  :   184
 total energy-change (2. order) : 0.1876186E+04  (-0.2304172E+04)
 number of electron     300.0000000 magnetization 
 augmentation part      300.0000000 magnetization 

 Free energy of the ion-electron system (eV)
  ---------------------------------------------------
  alpha Z        PSCENC =       256.70245505
  Ewald energy   TEWEN  =     -9917.49092602
  -Hartree energ DENC   =     -3348.92167946
  -exchange      EXHF   =         0.00000000
  -V(xc)+E(xc)   XCENC  =       791.82649936
  PAW double counting   =     10155.13001117   -10497.29644279
  entropy T*S    EENTRO =        -0.00000074
  eigenvalues    EBANDS =     -2629.77245870
  atomic energy  EATOM  =     15932.49537490
  Solvation  Ediel_sol  =         0.00000000
  ---------------------------------------------------
  free energy    TOTEN  =       742.67283277 eV

  energy without entropy =      742.67283351  energy(sigma->0) =      742.67283314


--------------------------------------------------------------------------------------------------------




--------------------------------------- Iteration      1(   3)  ---------------------------------------


    EDDIAG:  cpu time    0.1858: real time    0.1857
  RMM-DIIS:  cpu time    0.3318: real time    0.3350
    ORTHCH:  cpu time    0.0216: real time    0.0216
       DOS:  cpu time    0.0012: real time    0.0012
    --------------------------------------------
      LOOP:  cpu time    0.5405: real time    0.5435

 eigenvalue-minimisations  :   184
 total energy-change (2. order) :-0.5033832E+03  (-0.7325328E+03)
 number of electron     300.0000000 magnetization 
 augmentation part      300.0000000 magnetization 

 Free energy of the ion-electron system (eV)
  ---------------------------------------------------
  alpha Z        PSCENC =       256.70245505
  Ewald energy   TEWEN  =     -9917.49092602
  -Hartree energ DENC   =     -3348.92167946
  -exchange      EXHF   =         0.00000000
  -V(xc)+E(xc)   XCENC  =       791.82649936
  PAW double counting   =     10155.13001117   -10497.29644279
  entropy T*S    EENTRO =        -0.05444588
  eigenvalues    EBANDS =     -3133.10118411
  atomic energy  EATOM  =     15932.49537490
  Solvation  Ediel_sol  =         0.00000000
  ---------------------------------------------------
  free energy    TOTEN  =       239.28966222 eV

  energy without entropy =      239.34410810  energy(sigma->0) =      239.31688516


--------------------------------------------------------------------------------------------------------




--------------------------------------- Iteration      1(   4)  ---------------------------------------


    EDDIAG:  cpu time    0.1847: real time    0.1846
  RMM-DIIS:  cpu time    0.3312: real time    0.3310
    ORTHCH:  cpu time    0.0218: real time    0.0218
       DOS:  cpu time    0.0010: real time    0.0010
    --------------------------------------------
      LOOP:  cpu time    0.5388: real time    0.5384

 eigenvalue-minimisations  :   184
 total energy-change (2. order) :-0.2567339E+03  (-0.2585701E+03)
 number of electron     300.0000000 magnetization 
 augmentation part      300.0000000 magnetization 

 Free energy of the ion-electron system (eV)
  ---------------------------------------------------
  alpha Z        PSCENC =       256.70245505
  Ewald energy   TEWEN  =     -9917.49092602
  -Hartree energ DENC   =     -3348.92167946
  -exchange      EXHF   =         0.00000000
  -V(xc)+E(xc)   XCENC  =       791.82649936
  PAW double counting   =     10155.13001117   -10497.29644279
  entropy T*S    EENTRO =        -0.06049777
  eigenvalues    EBANDS =     -3389.82901221
  atomic energy  EATOM  =     15932.49537490
  Solvation  Ediel_sol  =         0.00000000
  ---------------------------------------------------
  free energy    TOTEN  =       -17.44421776 eV

  energy without entropy =      -17.38372000  energy(sigma->0) =      -17.41396888


--------------------------------------------------------------------------------------------------------




--------------------------------------- Iteration      1(   5)  ---------------------------------------


    EDDIAG:  cpu time    0.1836: real time    0.1835
  RMM-DIIS:  cpu time    0.3309: real time    0.3306
    ORTHCH:  cpu time    0.0216: real time    0.0216
       DOS:  cpu time    0.0007: real time    0.0007
    --------------------------------------------
      LOOP:  cpu time    0.5368: real time    0.5365

 eigenvalue-minimisations  :   184
 total energy-change (2. order) :-0.1119607E+03  (-0.1017029E+03)
 number of electron     300.0000000 magnetization 
 augmentation part      300.0000000 magnetization 

 Free energy of the ion-electron system (eV)
  ---------------------------------------------------
  alpha Z        PSCENC =       256.70245505
  Ewald energy   TEWEN  =     -9917.49092602
  -Hartree energ DENC   =     -3348.92167946
  -exchange      EXHF   =         0.00000000
  -V(xc)+E(xc)   XCENC  =       791.82649936
  PAW double counting   =     10155.13001117   -10497.29644279
  entropy T*S    EENTRO =        -0.00000000
  eigenvalues    EBANDS =     -3501.85018612
  atomic energy  EATOM  =     15932.49537490
  Solvation  Ediel_sol  =         0.00000000
  ---------------------------------------------------
  free energy    TOTEN  =      -129.40489391 eV

  energy without entropy =     -129.40489391  energy(sigma->0) =     -129.40489391


--------------------------------------------------------------------------------------------------------




--------------------------------------- Iteration      1(   6)  ---------------------------------------


    EDDIAG:  cpu time    0.1821: real time    0.1819
  RMM-DIIS:  cpu time    0.3308: real time    0.3305
    ORTHCH:  cpu time    0.0216: real time    0.0216
       DOS:  cpu time    0.0007: real time    0.0007
    --------------------------------------------
      LOOP:  cpu time    0.5351: real time    0.5346

 eigenvalue-minimisations  :   184
 total energy-change (2. order) :-0.4585293E+02  (-0.4295654E+02)
 number of electron     300.0000000 magnetization 
 augmentation part      300.0000000 magnetization 

 Free energy of the ion-electron system (eV)
  ---------------------------------------------------
  alpha Z        PSCENC =       256.70245505
  Ewald energy   TEWEN  =     -9917.49092602
  -Hartree energ DENC   =     -3348.92167946
  -exchange      EXHF   =         0.00000000
  -V(xc)+E(xc)   XCENC  =       791.82649936
  PAW double counting   =     10155.13001117   -10497.29644279
  entropy T*S    EENTRO =        -0.00000000
  eigenvalues    EBANDS =     -3547.70311847
  atomic energy  EATOM  =     15932.49537490
  Solvation  Ediel_sol  =         0.00000000
  ---------------------------------------------------
  free energy    TOTEN  =      -175.25782625 eV

  energy without entropy =     -175.25782625  energy(sigma->0) =     -175.25782625


--------------------------------------------------------------------------------------------------------




--------------------------------------- Iteration      1(   7)  ---------------------------------------


    EDDIAG:  cpu time    0.1841: real time    0.1840
  RMM-DIIS:  cpu time    0.3290: real time    0.3287
    ORTHCH:  cpu time    0.0215: real time    0.0214
       DOS:  cpu time    0.0007: real time    0.0007
    --------------------------------------------
      LOOP:  cpu time    0.5354: real time    0.5350

 eigenvalue-minimisations  :   184
 total energy-change (2. order) :-0.2201921E+02  (-0.2122757E+02)
 number of electron     300.0000000 magnetization 
 augmentation part      300.0000000 magnetization 

 Free energy of the ion-electron system (eV)
  ---------------------------------------------------
  alpha Z        PSCENC =       256.70245505
  Ewald energy   TEWEN  =     -9917.49092602
  -Hartree energ DENC   =     -3348.92167946
  -exchange      EXHF   =         0.00000000
  -V(xc)+E(xc)   XCENC  =       791.82649936
  PAW double counting   =     10155.13001117   -10497.29644279
  entropy T*S    EENTRO =        -0.00000000
  eigenvalues    EBANDS =     -3569.72233150
  atomic energy  EATOM  =     15932.49537490
  Solvation  Ediel_sol  =         0.00000000
  ---------------------------------------------------
  free energy    TOTEN  =      -197.27703928 eV

  energy without entropy =     -197.27703928  energy(sigma->0) =     -197.27703928


--------------------------------------------------------------------------------------------------------




--------------------------------------- Iteration      1(   8)  ---------------------------------------


    EDDIAG:  cpu time    0.1828: real time    0.1827
  RMM-DIIS:  cpu time    0.3304: real time    0.3301
    ORTHCH:  cpu time    0.0216: real time    0.0216
       DOS:  cpu time    0.0007: real time    0.0007
    --------------------------------------------
      LOOP:  cpu time    0.5354: real time    0.5351

 eigenvalue-minimisations  :   184
 total energy-change (2. order) :-0.1292924E+02  (-0.1219144E+02)
 number of electron     300.0000000 magnetization 
 augmentation part      300.0000000 magnetization 

 Free energy of the ion-electron system (eV)
  ---------------------------------------------------
  alpha Z        PSCENC =       256.70245505
  Ewald energy   TEWEN  =     -9917.49092602
  -Hartree energ DENC   =     -3348.92167946
  -exchange      EXHF   =         0.00000000
  -V(xc)+E(xc)   XCENC  =       791.82649936
  PAW double counting   =     10155.13001117   -10497.29644279
  entropy T*S    EENTRO =        -0.00000000
  eigenvalues    EBANDS =     -3582.65157546
  atomic energy  EATOM  =     15932.49537490
  Solvation  Ediel_sol  =         0.00000000
  ---------------------------------------------------
  free energy    TOTEN  =      -210.20628324 eV

  energy without entropy =     -210.20628324  energy(sigma->0) =     -210.20628324


--------------------------------------------------------------------------------------------------------




--------------------------------------- Iteration      1(   9)  ---------------------------------------


    EDDIAG:  cpu time    0.1825: real time    0.1824
  RMM-DIIS:  cpu time    1.1581: real time    1.1573
    ORTHCH:  cpu time    0.0303: real time    0.0303
       DOS:  cpu time    0.0007: real time    0.0007
    --------------------------------------------
      LOOP:  cpu time    1.3716: real time    1.3707

 eigenvalue-minimisations  :   668
 total energy-change (2. order) :-0.3428491E+02  (-0.3404445E+02)
 number of electron     300.0000000 magnetization 
 augmentation part      300.0000000 magnetization 

 Free energy of the ion-electron system (eV)
  ---------------------------------------------------
  alpha Z        PSCENC =       256.70245505
  Ewald energy   TEWEN  =     -9917.49092602
  -Hartree energ DENC   =     -3348.92167946
  -exchange      EXHF   =         0.00000000
  -V(xc)+E(xc)   XCENC  =       791.82649936
  PAW double counting   =     10155.13001117   -10497.29644279
  entropy T*S    EENTRO =        -0.00000000
  eigenvalues    EBANDS =     -3616.93649026
  atomic energy  EATOM  =     15932.49537490
  Solvation  Ediel_sol  =         0.00000000
  ---------------------------------------------------
  free energy    TOTEN  =      -244.49119805 eV

  energy without entropy =     -244.49119805  energy(sigma->0) =     -244.49119805


--------------------------------------------------------------------------------------------------------




--------------------------------------- Iteration      1(  10)  ---------------------------------------


    EDDIAG:  cpu time    0.1853: real time    0.1851
  RMM-DIIS:  cpu time    1.1666: real time    1.1657
    ORTHCH:  cpu time    0.0287: real time    0.0287
       DOS:  cpu time    0.0008: real time    0.0008
    --------------------------------------------
      LOOP:  cpu time    1.3813: real time    1.3802

 eigenvalue-minimisations  :   664
 total energy-change (2. order) :-0.1738534E+02  (-0.1714153E+02)
 number of electron     300.0000000 magnetization 
 augmentation part      300.0000000 magnetization 

 Free energy of the ion-electron system (eV)
  ---------------------------------------------------
  alpha Z        PSCENC =       256.70245505
  Ewald energy   TEWEN  =     -9917.49092602
  -Hartree energ DENC   =     -3348.92167946
  -exchange      EXHF   =         0.00000000
  -V(xc)+E(xc)   XCENC  =       791.82649936
  PAW double counting   =     10155.13001117   -10497.29644279
  entropy T*S    EENTRO =        -0.00000000
  eigenvalues    EBANDS =     -3634.32182757
  atomic energy  EATOM  =     15932.49537490
  Solvation  Ediel_sol  =         0.00000000
  ---------------------------------------------------
  free energy    TOTEN  =      -261.87653536 eV

  energy without entropy =     -261.87653536  energy(sigma->0) =     -261.87653536


--------------------------------------------------------------------------------------------------------




--------------------------------------- Iteration      1(  11)  ---------------------------------------


    EDDIAG:  cpu time    0.1864: real time    0.1863
  RMM-DIIS:  cpu time    1.2195: real time    1.2184
    ORTHCH:  cpu time    0.0305: real time    0.0305
       DOS:  cpu time    0.0007: real time    0.0007
    --------------------------------------------
      LOOP:  cpu time    1.4371: real time    1.4360

 eigenvalue-minimisations  :   643
 total energy-change (2. order) :-0.3986126E+01  (-0.4039221E+01)
 number of electron     300.0000000 magnetization 
 augmentation part      300.0000000 magnetization 

 Free energy of the ion-electron system (eV)
  ---------------------------------------------------
  alpha Z        PSCENC =       256.70245505
  Ewald energy   TEWEN  =     -9917.49092602
  -Hartree energ DENC   =     -3348.92167946
  -exchange      EXHF   =         0.00000000
  -V(xc)+E(xc)   XCENC  =       791.82649936
  PAW double counting   =     10155.13001117   -10497.29644279
  entropy T*S    EENTRO =        -0.00000000
  eigenvalues    EBANDS =     -3638.30795323
  atomic energy  EATOM  =     15932.49537490
  Solvation  Ediel_sol  =         0.00000000
  ---------------------------------------------------
  free energy    TOTEN  =      -265.86266102 eV

  energy without entropy =     -265.86266102  energy(sigma->0) =     -265.86266102


--------------------------------------------------------------------------------------------------------




--------------------------------------- Iteration      1(  12)  ---------------------------------------


    EDDIAG:  cpu time    0.2018: real time    0.2017
  RMM-DIIS:  cpu time    1.1114: real time    1.1104
    ORTHCH:  cpu time    0.0273: real time    0.0273
       DOS:  cpu time    0.0007: real time    0.0007
    CHARGE:  cpu time    0.0440: real time    0.0468
    MIXING:  cpu time    0.0042: real time    0.0085
    --------------------------------------------
      LOOP:  cpu time    1.3895: real time    1.3954

 eigenvalue-minimisations  :   633
 total energy-change (2. order) :-0.2163010E+01  (-0.2159693E+01)
 number of electron     300.0000023 magnetization 
 augmentation part        2.1211737 magnetization 

 Broyden mixing:
  rms(total) = 0.38091E+01    rms(broyden)= 0.38075E+01
  rms(prec ) = 0.40601E+01
  weight for this iteration     100.00

 Free energy of the ion-electron system (eV)
  ---------------------------------------------------
  alpha Z        PSCENC =       256.70245505
  Ewald energy   TEWEN  =     -9917.49092602
  -Hartree energ DENC   =     -3348.92167946
  -exchange      EXHF   =         0.00000000
  -V(xc)+E(xc)   XCENC  =       791.82649936
  PAW double counting   =     10155.13001117   -10497.29644279
  entropy T*S    EENTRO =        -0.00000000
  eigenvalues    EBANDS =     -3640.47096306
  atomic energy  EATOM  =     15932.49537490
  Solvation  Ediel_sol  =         0.00000000
  ---------------------------------------------------
  free energy    TOTEN  =      -268.02567084 eV

  energy without entropy =     -268.02567084  energy(sigma->0) =     -268.02567084


--------------------------------------------------------------------------------------------------------




--------------------------------------- Iteration      1(  13)  ---------------------------------------


    POTLOK:  cpu time    0.0700: real time    0.0701
    SETDIJ:  cpu time    0.0147: real time    0.0147
    EDDIAG:  cpu time    0.1819: real time    0.1819
  RMM-DIIS:  cpu time    0.8607: real time    0.8599
    ORTHCH:  cpu time    0.0281: real time    0.0280
       DOS:  cpu time    0.0007: real time    0.0007
    CHARGE:  cpu time    0.0403: real time    0.0403
    MIXING:  cpu time    0.0037: real time    0.0044
    --------------------------------------------
      LOOP:  cpu time    1.2001: real time    1.2000

 eigenvalue-minimisations  :   493
 total energy-change (2. order) : 0.8670344E+01  (-0.2203373E+01)
 number of electron     300.0000022 magnetization 
 augmentation part        2.2648750 magnetization 

 Broyden mixing:
  rms(total) = 0.24777E+01    rms(broyden)= 0.24776E+01
  rms(prec ) = 0.25741E+01
  weight for this iteration     100.00

 eigenvalues of (default mixing * dielectric matrix)
  average eigenvalue GAMMA=   2.2956
  2.2956

 Free energy of the ion-electron system (eV)
  ---------------------------------------------------
  alpha Z        PSCENC =       256.70245505
  Ewald energy   TEWEN  =     -9917.49092602
  -Hartree energ DENC   =     -3428.98508506
  -exchange      EXHF   =         0.00000000
  -V(xc)+E(xc)   XCENC  =       797.79573550
  PAW double counting   =     13940.40465548   -14288.99846181
  entropy T*S    EENTRO =        -0.00000000
  eigenvalues    EBANDS =     -3551.27907442
  atomic energy  EATOM  =     15932.49537490
  Solvation  Ediel_sol  =         0.00000000
  ---------------------------------------------------
  free energy    TOTEN  =      -259.35532637 eV

  energy without entropy =     -259.35532637  energy(sigma->0) =     -259.35532637


--------------------------------------------------------------------------------------------------------




--------------------------------------- Iteration      1(  14)  ---------------------------------------


    POTLOK:  cpu time    0.0695: real time    0.0694
    SETDIJ:  cpu time    0.0146: real time    0.0146
    EDDIAG:  cpu time    0.1829: real time    0.1829
  RMM-DIIS:  cpu time    0.8838: real time    0.8968
    ORTHCH:  cpu time    0.0270: real time    0.0270
       DOS:  cpu time    0.0007: real time    0.0007
    CHARGE:  cpu time    0.0400: real time    0.0401
    MIXING:  cpu time    0.0035: real time    0.0035
    --------------------------------------------
      LOOP:  cpu time    1.2221: real time    1.2350

 eigenvalue-minimisations  :   516
 total energy-change (2. order) : 0.9992991E+00  (-0.1861236E+01)
 number of electron     300.0000022 magnetization 
 augmentation part        2.0939055 magnetization 

 Broyden mixing:
  rms(total) = 0.65588E+00    rms(broyden)= 0.65577E+00
  rms(prec ) = 0.69927E+00
  weight for this iteration     100.00

 eigenvalues of (default mixing * dielectric matrix)
  average eigenvalue GAMMA=   1.9381
  1.4476  2.4286

 Free energy of the ion-electron system (eV)
  ---------------------------------------------------
  alpha Z        PSCENC =       256.70245505
  Ewald energy   TEWEN  =     -9917.49092602
  -Hartree energ DENC   =     -3511.82637308
  -exchange      EXHF   =         0.00000000
  -V(xc)+E(xc)   XCENC  =       804.35554404
  PAW double counting   =     21417.71326297   -21774.30132673
  entropy T*S    EENTRO =        -0.00000000
  eigenvalues    EBANDS =     -3466.00403841
  atomic energy  EATOM  =     15932.49537490
  Solvation  Ediel_sol  =         0.00000000
  ---------------------------------------------------
  free energy    TOTEN  =      -258.35602729 eV

  energy without entropy =     -258.35602729  energy(sigma->0) =     -258.35602729


--------------------------------------------------------------------------------------------------------




--------------------------------------- Iteration      1(  15)  ---------------------------------------


    POTLOK:  cpu time    0.0695: real time    0.0695
    SETDIJ:  cpu time    0.0148: real time    0.0148
    EDDIAG:  cpu time    0.1823: real time    0.1822
  RMM-DIIS:  cpu time    1.0321: real time    1.0342
    ORTHCH:  cpu time    0.0271: real time    0.0270
       DOS:  cpu time    0.0008: real time    0.0008
    CHARGE:  cpu time    0.0400: real time    0.0401
    MIXING:  cpu time    0.0037: real time    0.0037
    --------------------------------------------
      LOOP:  cpu time    1.3704: real time    1.3723

 eigenvalue-minimisations  :   585
 total energy-change (2. order) :-0.1202327E+00  (-0.4047072E+00)
 number of electron     300.0000022 magnetization 
 augmentation part        1.7131536 magnetization 

 Broyden mixing:
  rms(total) = 0.16525E+00    rms(broyden)= 0.16477E+00
  rms(prec ) = 0.18456E+00
  weight for this iteration     100.00

 eigenvalues of (default mixing * dielectric matrix)
  average eigenvalue GAMMA=   1.5991
  2.3625  1.0671  1.3677

 Free energy of the ion-electron system (eV)
  ---------------------------------------------------
  alpha Z        PSCENC =       256.70245505
  Ewald energy   TEWEN  =     -9917.49092602
  -Hartree energ DENC   =     -3511.36297862
  -exchange      EXHF   =         0.00000000
  -V(xc)+E(xc)   XCENC  =       804.55098756
  PAW double counting   =     23208.14031275   -23566.88653269
  entropy T*S    EENTRO =        -0.00000000
  eigenvalues    EBANDS =     -3464.62495297
  atomic energy  EATOM  =     15932.49537490
  Solvation  Ediel_sol  =         0.00000000
  ---------------------------------------------------
  free energy    TOTEN  =      -258.47626002 eV

  energy without entropy =     -258.47626002  energy(sigma->0) =     -258.47626002


--------------------------------------------------------------------------------------------------------




--------------------------------------- Iteration      1(  16)  ---------------------------------------


    POTLOK:  cpu time    0.0695: real time    0.0696
    SETDIJ:  cpu time    0.0146: real time    0.0146
    EDDIAG:  cpu time    0.1810: real time    0.1808
  RMM-DIIS:  cpu time    1.1058: real time    1.1050
    ORTHCH:  cpu time    0.0269: real time    0.0270
       DOS:  cpu time    0.0008: real time    0.0008
    CHARGE:  cpu time    0.0401: real time    0.0400
    MIXING:  cpu time    0.0036: real time    0.0036
    --------------------------------------------
      LOOP:  cpu time    1.4424: real time    1.4414

 eigenvalue-minimisations  :   630
 total energy-change (2. order) :-0.1222566E+00  (-0.1545450E+00)
 number of electron     300.0000022 magnetization 
 augmentation part        1.4730286 magnetization 

 Broyden mixing:
  rms(total) = 0.13602E+00    rms(broyden)= 0.13562E+00
  rms(prec ) = 0.14733E+00
  weight for this iteration     100.00

 eigenvalues of (default mixing * dielectric matrix)
  average eigenvalue GAMMA=   1.7526
  2.2798  1.1126  1.8090  1.8090

 Free energy of the ion-electron system (eV)
  ---------------------------------------------------
  alpha Z        PSCENC =       256.70245505
  Ewald energy   TEWEN  =     -9917.49092602
  -Hartree energ DENC   =     -3512.71785662
  -exchange      EXHF   =         0.00000000
  -V(xc)+E(xc)   XCENC  =       804.71769996
  PAW double counting   =     23067.83996375   -23426.86080620
  entropy T*S    EENTRO =        -0.00000000
  eigenvalues    EBANDS =     -3463.28442149
  atomic energy  EATOM  =     15932.49537490
  Solvation  Ediel_sol  =         0.00000000
  ---------------------------------------------------
  free energy    TOTEN  =      -258.59851667 eV

  energy without entropy =     -258.59851667  energy(sigma->0) =     -258.59851667


--------------------------------------------------------------------------------------------------------




--------------------------------------- Iteration      1(  17)  ---------------------------------------


    POTLOK:  cpu time    0.0691: real time    0.0692
    SETDIJ:  cpu time    0.0146: real time    0.0146
    EDDIAG:  cpu time    0.1824: real time    0.1822
  RMM-DIIS:  cpu time    1.0657: real time    1.0647
    ORTHCH:  cpu time    0.0342: real time    0.0341
       DOS:  cpu time    0.0007: real time    0.0007
    CHARGE:  cpu time    0.0468: real time    0.0468
    MIXING:  cpu time    0.0045: real time    0.0045
    --------------------------------------------
      LOOP:  cpu time    1.4180: real time    1.4169

 eigenvalue-minimisations  :   612
 total energy-change (2. order) :-0.8794883E-01  (-0.8469495E-01)
 number of electron     300.0000022 magnetization 
 augmentation part        1.3544294 magnetization 

 Broyden mixing:
  rms(total) = 0.52760E-01    rms(broyden)= 0.52338E-01
  rms(prec ) = 0.59152E-01
  weight for this iteration     100.00

 eigenvalues of (default mixing * dielectric matrix)
  average eigenvalue GAMMA=   1.8092
  2.5329  2.5329  0.9486  1.7001  1.3314

 Free energy of the ion-electron system (eV)
  ---------------------------------------------------
  alpha Z        PSCENC =       256.70245505
  Ewald energy   TEWEN  =     -9917.49092602
  -Hartree energ DENC   =     -3518.44009923
  -exchange      EXHF   =         0.00000000
  -V(xc)+E(xc)   XCENC  =       805.26112800
  PAW double counting   =     22959.24146098   -23318.65635179
  entropy T*S    EENTRO =        -0.00000000
  eigenvalues    EBANDS =     -3457.79950738
  atomic energy  EATOM  =     15932.49537490
  Solvation  Ediel_sol  =         0.00000000
  ---------------------------------------------------
  free energy    TOTEN  =      -258.68646549 eV

  energy without entropy =     -258.68646549  energy(sigma->0) =     -258.68646549


--------------------------------------------------------------------------------------------------------




--------------------------------------- Iteration      1(  18)  ---------------------------------------


    POTLOK:  cpu time    0.0784: real time    0.0784
    SETDIJ:  cpu time    0.0161: real time    0.0161
    EDDIAG:  cpu time    0.1930: real time    0.1929
  RMM-DIIS:  cpu time    1.0867: real time    1.0859
    ORTHCH:  cpu time    0.0304: real time    0.0304
       DOS:  cpu time    0.0009: real time    0.0009
    CHARGE:  cpu time    0.0487: real time    0.0487
    MIXING:  cpu time    0.0048: real time    0.0048
    --------------------------------------------
      LOOP:  cpu time    1.4590: real time    1.4580

 eigenvalue-minimisations  :   608
 total energy-change (2. order) :-0.5241336E-01  (-0.5236897E-01)
 number of electron     300.0000022 magnetization 
 augmentation part        1.2715205 magnetization 

 Broyden mixing:
  rms(total) = 0.15809E-01    rms(broyden)= 0.15002E-01
  rms(prec ) = 0.18613E-01
  weight for this iteration     100.00

 eigenvalues of (default mixing * dielectric matrix)
  average eigenvalue GAMMA=   1.7481
  2.7083  2.7083  1.5782  1.5782  1.0510  0.8644

 Free energy of the ion-electron system (eV)
  ---------------------------------------------------
  alpha Z        PSCENC =       256.70245505
  Ewald energy   TEWEN  =     -9917.49092602
  -Hartree energ DENC   =     -3522.80029199
  -exchange      EXHF   =         0.00000000
  -V(xc)+E(xc)   XCENC  =       805.62315250
  PAW double counting   =     22928.32836011   -23287.56787130
  entropy T*S    EENTRO =        -0.00000000
  eigenvalues    EBANDS =     -3454.02913211
  atomic energy  EATOM  =     15932.49537490
  Solvation  Ediel_sol  =         0.00000000
  ---------------------------------------------------
  free energy    TOTEN  =      -258.73887885 eV

  energy without entropy =     -258.73887885  energy(sigma->0) =     -258.73887885


--------------------------------------------------------------------------------------------------------




--------------------------------------- Iteration      1(  19)  ---------------------------------------


    POTLOK:  cpu time    0.0797: real time    0.0796
    SETDIJ:  cpu time    0.0157: real time    0.0157
    EDDIAG:  cpu time    0.1983: real time    0.1981
  RMM-DIIS:  cpu time    1.0936: real time    1.0927
    ORTHCH:  cpu time    0.0386: real time    0.0386
       DOS:  cpu time    0.0009: real time    0.0009
    CHARGE:  cpu time    0.0410: real time    0.0409
    MIXING:  cpu time    0.0041: real time    0.0041
    --------------------------------------------
      LOOP:  cpu time    1.4719: real time    1.4707

 eigenvalue-minimisations  :   620
 total energy-change (2. order) :-0.3601536E-01  (-0.3687126E-01)
 number of electron     300.0000022 magnetization 
 augmentation part        1.1941145 magnetization 

 Broyden mixing:
  rms(total) = 0.19063E-01    rms(broyden)= 0.18508E-01
  rms(prec ) = 0.20139E-01
  weight for this iteration     100.00

 eigenvalues of (default mixing * dielectric matrix)
  average eigenvalue GAMMA=   1.5756
  2.6612  2.6612  1.5679  1.5679  1.0860  0.9157  0.5694

 Free energy of the ion-electron system (eV)
  ---------------------------------------------------
  alpha Z        PSCENC =       256.70245505
  Ewald energy   TEWEN  =     -9917.49092602
  -Hartree energ DENC   =     -3524.28000615
  -exchange      EXHF   =         0.00000000
  -V(xc)+E(xc)   XCENC  =       805.72533562
  PAW double counting   =     22925.11499280   -23283.94913210
  entropy T*S    EENTRO =        -0.00000000
  eigenvalues    EBANDS =     -3453.09298831
  atomic energy  EATOM  =     15932.49537490
  Solvation  Ediel_sol  =         0.00000000
  ---------------------------------------------------
  free energy    TOTEN  =      -258.77489422 eV

  energy without entropy =     -258.77489422  energy(sigma->0) =     -258.77489422


--------------------------------------------------------------------------------------------------------




--------------------------------------- Iteration      1(  20)  ---------------------------------------


    POTLOK:  cpu time    0.0685: real time    0.0685
    SETDIJ:  cpu time    0.0148: real time    0.0148
    EDDIAG:  cpu time    0.1794: real time    0.1793
  RMM-DIIS:  cpu time    1.0962: real time    1.0953
    ORTHCH:  cpu time    0.0409: real time    0.0409
       DOS:  cpu time    0.0009: real time    0.0009
    CHARGE:  cpu time    0.0410: real time    0.0410
    MIXING:  cpu time    0.0043: real time    0.0043
    --------------------------------------------
      LOOP:  cpu time    1.4459: real time    1.4449

 eigenvalue-minimisations  :   636
 total energy-change (2. order) :-0.1586598E-01  (-0.1634100E-01)
 number of electron     300.0000022 magnetization 
 augmentation part        1.1511642 magnetization 

 Broyden mixing:
  rms(total) = 0.26629E-01    rms(broyden)= 0.26464E-01
  rms(prec ) = 0.28828E-01
  weight for this iteration     100.00

 eigenvalues of (default mixing * dielectric matrix)
  average eigenvalue GAMMA=   1.4898
  2.6236  2.6236  1.7979  1.4876  1.1821  0.9599  0.6918  0.5521

 Free energy of the ion-electron system (eV)
  ---------------------------------------------------
  alpha Z        PSCENC =       256.70245505
  Ewald energy   TEWEN  =     -9917.49092602
  -Hartree energ DENC   =     -3524.38151290
  -exchange      EXHF   =         0.00000000
  -V(xc)+E(xc)   XCENC  =       805.73236475
  PAW double counting   =     22926.21232619   -23284.98067235
  entropy T*S    EENTRO =        -0.00000000
  eigenvalues    EBANDS =     -3453.08016983
  atomic energy  EATOM  =     15932.49537490
  Solvation  Ediel_sol  =         0.00000000
  ---------------------------------------------------
  free energy    TOTEN  =      -258.79076019 eV

  energy without entropy =     -258.79076019  energy(sigma->0) =     -258.79076019


--------------------------------------------------------------------------------------------------------




--------------------------------------- Iteration      1(  21)  ---------------------------------------


    POTLOK:  cpu time    0.0681: real time    0.0681
    SETDIJ:  cpu time    0.0146: real time    0.0146
    EDDIAG:  cpu time    0.1817: real time    0.1816
  RMM-DIIS:  cpu time    1.0544: real time    1.0536
    ORTHCH:  cpu time    0.0413: real time    0.0412
       DOS:  cpu time    0.0010: real time    0.0010
    CHARGE:  cpu time    0.0408: real time    0.0408
    MIXING:  cpu time    0.0045: real time    0.0045
    --------------------------------------------
      LOOP:  cpu time    1.4063: real time    1.4053

 eigenvalue-minimisations  :   613
 total energy-change (2. order) :-0.9947864E-02  (-0.1090446E-01)
 number of electron     300.0000022 magnetization 
 augmentation part        1.1211488 magnetization 

 Broyden mixing:
  rms(total) = 0.39967E-01    rms(broyden)= 0.39907E-01
  rms(prec ) = 0.43867E-01
  weight for this iteration     100.00

 eigenvalues of (default mixing * dielectric matrix)
  average eigenvalue GAMMA=   1.3921
  2.6451  2.6451  0.7982  1.6255  1.6255  1.1308  0.9583  0.5501  0.5501

 Free energy of the ion-electron system (eV)
  ---------------------------------------------------
  alpha Z        PSCENC =       256.70245505
  Ewald energy   TEWEN  =     -9917.49092602
  -Hartree energ DENC   =     -3524.83636251
  -exchange      EXHF   =         0.00000000
  -V(xc)+E(xc)   XCENC  =       805.75380940
  PAW double counting   =     22931.73916925   -23290.48004124
  entropy T*S    EENTRO =        -0.00000000
  eigenvalues    EBANDS =     -3452.68418690
  atomic energy  EATOM  =     15932.49537490
  Solvation  Ediel_sol  =         0.00000000
  ---------------------------------------------------
  free energy    TOTEN  =      -258.80070806 eV

  energy without entropy =     -258.80070806  energy(sigma->0) =     -258.80070806


--------------------------------------------------------------------------------------------------------




--------------------------------------- Iteration      1(  22)  ---------------------------------------


    POTLOK:  cpu time    0.0687: real time    0.0687
    SETDIJ:  cpu time    0.0147: real time    0.0147
    EDDIAG:  cpu time    0.1796: real time    0.1795
  RMM-DIIS:  cpu time    1.0686: real time    1.0675
    ORTHCH:  cpu time    0.0417: real time    0.0417
       DOS:  cpu time    0.0010: real time    0.0010
    CHARGE:  cpu time    0.0412: real time    0.0412
    MIXING:  cpu time    0.0048: real time    0.0048
    --------------------------------------------
      LOOP:  cpu time    1.4202: real time    1.4192

 eigenvalue-minimisations  :   621
 total energy-change (2. order) :-0.4933055E-02  (-0.6726272E-02)
 number of electron     300.0000022 magnetization 
 augmentation part        1.0962791 magnetization 

 Broyden mixing:
  rms(total) = 0.53708E-01    rms(broyden)= 0.53682E-01
  rms(prec ) = 0.59073E-01
  weight for this iteration     100.00

 eigenvalues of (default mixing * dielectric matrix)
  average eigenvalue GAMMA=   1.4328
  2.7168  2.7168  0.9831  0.9831  1.6166  1.6166  1.0014  1.0014  0.8462  0.8462

 Free energy of the ion-electron system (eV)
  ---------------------------------------------------
  alpha Z        PSCENC =       256.70245505
  Ewald energy   TEWEN  =     -9917.49092602
  -Hartree energ DENC   =     -3524.69069368
  -exchange      EXHF   =         0.00000000
  -V(xc)+E(xc)   XCENC  =       805.73944559
  PAW double counting   =     22933.33727574   -23292.29629883
  entropy T*S    EENTRO =        -0.00000000
  eigenvalues    EBANDS =     -3452.60227387
  atomic energy  EATOM  =     15932.49537490
  Solvation  Ediel_sol  =         0.00000000
  ---------------------------------------------------
  free energy    TOTEN  =      -258.80564111 eV

  energy without entropy =     -258.80564111  energy(sigma->0) =     -258.80564111


--------------------------------------------------------------------------------------------------------




--------------------------------------- Iteration      1(  23)  ---------------------------------------


    POTLOK:  cpu time    0.0682: real time    0.0683
    SETDIJ:  cpu time    0.0147: real time    0.0147
    EDDIAG:  cpu time    0.1847: real time    0.1846
  RMM-DIIS:  cpu time    1.0378: real time    1.0371
    ORTHCH:  cpu time    0.0373: real time    0.0372
       DOS:  cpu time    0.0008: real time    0.0008
    CHARGE:  cpu time    0.0407: real time    0.0407
    MIXING:  cpu time    0.0048: real time    0.0048
    --------------------------------------------
      LOOP:  cpu time    1.3890: real time    1.3881

 eigenvalue-minimisations  :   599
 total energy-change (2. order) :-0.3090461E-02  (-0.3956171E-02)
 number of electron     300.0000022 magnetization 
 augmentation part        1.0719456 magnetization 

 Broyden mixing:
  rms(total) = 0.32903E-01    rms(broyden)= 0.32885E-01
  rms(prec ) = 0.35457E-01
  weight for this iteration     100.00

 eigenvalues of (default mixing * dielectric matrix)
  average eigenvalue GAMMA=   1.3312
  2.7134  2.7134  1.0799  1.0799  1.6153  1.6153  1.0068  1.0068  0.8435  0.8435
  0.1254

 Free energy of the ion-electron system (eV)
  ---------------------------------------------------
  alpha Z        PSCENC =       256.70245505
  Ewald energy   TEWEN  =     -9917.49092602
  -Hartree energ DENC   =     -3525.07798836
  -exchange      EXHF   =         0.00000000
  -V(xc)+E(xc)   XCENC  =       805.78215180
  PAW double counting   =     22930.37770332   -23288.67634729
  entropy T*S    EENTRO =        -0.00000000
  eigenvalues    EBANDS =     -3452.92115497
  atomic energy  EATOM  =     15932.49537490
  Solvation  Ediel_sol  =         0.00000000
  ---------------------------------------------------
  free energy    TOTEN  =      -258.80873157 eV

  energy without entropy =     -258.80873157  energy(sigma->0) =     -258.80873157


--------------------------------------------------------------------------------------------------------




--------------------------------------- Iteration      1(  24)  ---------------------------------------


    POTLOK:  cpu time    0.0700: real time    0.0700
    SETDIJ:  cpu time    0.0147: real time    0.0147
    EDDIAG:  cpu time    0.1822: real time    0.1822
  RMM-DIIS:  cpu time    1.1163: real time    1.1153
    ORTHCH:  cpu time    0.0263: real time    0.0264
       DOS:  cpu time    0.0008: real time    0.0008
    CHARGE:  cpu time    0.0408: real time    0.0408
    MIXING:  cpu time    0.0051: real time    0.0051
    --------------------------------------------
      LOOP:  cpu time    1.4562: real time    1.4552

 eigenvalue-minimisations  :   638
 total energy-change (2. order) :-0.1731952E-02  (-0.2597595E-02)
 number of electron     300.0000022 magnetization 
 augmentation part        1.0605674 magnetization 

 Broyden mixing:
  rms(total) = 0.38702E-01    rms(broyden)= 0.38692E-01
  rms(prec ) = 0.41843E-01
  weight for this iteration     100.00

 eigenvalues of (default mixing * dielectric matrix)
  average eigenvalue GAMMA=   1.3460
  2.6273  2.6273  1.3991  1.3991  1.8411  1.4706  1.0169  1.0169  0.7724  0.7724
  0.6043  0.6043

 Free energy of the ion-electron system (eV)
  ---------------------------------------------------
  alpha Z        PSCENC =       256.70245505
  Ewald energy   TEWEN  =     -9917.49092602
  -Hartree energ DENC   =     -3525.02465079
  -exchange      EXHF   =         0.00000000
  -V(xc)+E(xc)   XCENC  =       805.77601665
  PAW double counting   =     22929.60818044   -23287.98999563
  entropy T*S    EENTRO =        -0.00000000
  eigenvalues    EBANDS =     -3452.88691812
  atomic energy  EATOM  =     15932.49537490
  Solvation  Ediel_sol  =         0.00000000
  ---------------------------------------------------
  free energy    TOTEN  =      -258.81046353 eV

  energy without entropy =     -258.81046353  energy(sigma->0) =     -258.81046353


--------------------------------------------------------------------------------------------------------




--------------------------------------- Iteration      1(  25)  ---------------------------------------


    POTLOK:  cpu time    0.0697: real time    0.0697
[...]
      direct lattice vectors                 reciprocal lattice vectors
    10.250000000  0.000000000  0.000000000     0.097560976  0.000000000  0.000000000
     0.000000000 10.250000000  0.000000000     0.000000000  0.097560976  0.000000000
     0.000000000  0.000000000 12.350000000     0.000000000  0.000000000  0.080971660

  length of vectors
    10.250000000 10.250000000 12.350000000     0.097560976  0.097560976  0.080971660


 FORCES acting on ions
    electron-ion (+dipol)            ewald-force                    non-local-force                 convergence-correction
 -----------------------------------------------------------------------------------------------
   0.513E+01 -.449E+00 0.139E+02   -.371E+01 0.685E+00 -.133E+02   -.200E+01 0.736E+00 -.110E+01   0.641E-04 0.112E-03 -.503E-04
   -.265E+01 -.247E+02 0.400E+02   0.336E+01 0.251E+02 -.395E+02   -.488E+00 -.451E+00 -.375E+00   -.528E-04 -.395E-05 0.153E-03
   -.779E+01 0.394E+02 0.437E+01   0.660E+01 -.392E+02 -.429E+01   0.151E+01 -.400E+00 0.156E+00   0.410E-04 0.963E-04 -.249E-04
   -.219E+01 -.376E+02 -.267E+01   0.145E+01 0.366E+02 0.318E+01   0.570E+00 0.119E+01 -.639E+00   -.710E-04 -.107E-03 -.366E-04
   0.266E+02 0.273E+02 -.148E+02   -.261E+02 -.264E+02 0.151E+02   -.674E+00 -.792E+00 -.342E+00   0.132E-03 0.172E-03 0.670E-04
   -.264E+02 -.230E+02 0.240E+02   0.248E+02 0.226E+02 -.239E+02   0.146E+01 0.401E+00 -.242E+00   -.105E-03 0.746E-04 0.597E-04
   0.151E+02 -.275E+01 -.343E+02   -.141E+02 0.340E+01 0.325E+02   -.797E+00 -.836E+00 0.194E+01   0.384E-04 -.528E-04 -.581E-04
   0.884E+01 0.182E+02 -.259E+02   -.864E+01 -.176E+02 0.267E+02   0.148E+00 -.105E+01 -.884E+00   0.156E-03 0.531E-04 0.198E-03
   0.174E+02 -.234E+01 0.362E+02   -.179E+02 0.184E+01 -.361E+02   0.329E+00 0.648E+00 -.120E+00   -.294E-04 -.293E-04 0.132E-05
   -.990E+01 -.304E+01 -.157E+02   0.900E+01 0.279E+01 0.151E+02   0.971E+00 0.242E+00 0.485E+00   -.673E-04 -.158E-03 -.184E-03
   -.103E+02 0.217E+02 0.852E+01   0.988E+01 -.203E+02 -.841E+01   0.337E+00 -.161E+01 0.541E-01   0.254E-03 0.112E-04 0.348E-04
   -.376E+01 -.162E+02 0.734E+00   0.323E+01 0.152E+02 -.105E+01   0.321E+00 0.733E+00 0.218E+00   -.142E-03 -.148E-03 -.269E-05
   -.330E+02 -.572E+01 0.240E+02   0.320E+02 0.535E+01 -.242E+02   0.196E+01 0.381E+00 0.101E+00   0.561E-04 0.954E-04 0.120E-03
   0.133E+01 0.873E+01 -.140E+01   -.208E+01 -.776E+01 0.177E+01   0.104E+01 -.906E+00 -.875E+00   0.914E-04 -.779E-04 -.116E-03
   0.157E+02 -.153E+02 -.675E+01   -.146E+02 0.146E+02 0.646E+01   -.719E+00 0.356E+00 0.473E+00   0.357E-03 -.465E-05 -.763E-04
   -.106E+02 0.110E+02 0.905E+01   0.105E+02 -.112E+02 -.758E+01   0.669E+00 0.840E+00 -.174E+01   -.424E-05 0.722E-04 0.338E-03
   0.219E+02 0.199E+02 0.344E+01   -.205E+02 -.188E+02 -.308E+01   -.108E+01 -.134E+01 -.611E+00   0.108E-03 0.108E-04 -.557E-04
   -.221E+02 0.834E+01 0.156E+02   0.213E+02 -.900E+01 -.152E+02   0.132E+01 0.648E+00 -.261E+00   0.374E-04 -.161E-03 0.166E-03
   0.256E+02 0.212E+02 0.459E+01   -.245E+02 -.202E+02 -.390E+01   -.151E+01 -.829E+00 -.871E+00   0.123E-03 0.397E-04 -.178E-03
   -.872E+01 -.240E+02 -.561E+01   0.838E+01 0.237E+02 0.516E+01   0.478E+00 0.503E+00 0.421E+00   0.116E-04 0.371E-05 0.161E-04
   0.125E+02 0.278E+01 -.340E+01   -.113E+02 -.214E+01 0.234E+01   -.112E+01 -.802E+00 0.110E+01   0.116E-03 0.854E-04 -.201E-03
   0.152E+02 -.443E+01 -.380E+01   -.155E+02 0.467E+01 0.317E+01   0.810E-01 -.348E+00 0.567E+00   0.102E-03 -.606E-04 -.308E-04
   -.732E+01 0.202E+02 -.324E+01   0.711E+01 -.199E+02 0.432E+01   -.124E+00 -.371E+00 -.858E+00   -.203E-04 0.758E-04 -.231E-04
   -.100E+02 0.401E+02 -.240E+02   0.894E+01 -.398E+02 0.233E+02   0.133E+01 -.639E+00 0.743E+00   -.255E-03 0.735E-04 -.105E-03
   -.785E+01 0.349E+02 -.110E+02   0.771E+01 -.345E+02 0.111E+02   0.219E+00 -.293E+00 -.293E+00   -.307E-03 0.413E-04 0.177E-03
   0.943E+01 -.113E+02 -.800E-01   -.830E+01 0.117E+02 -.101E+00   -.118E+01 -.402E+00 0.121E+00   -.104E-05 -.639E-04 -.722E-04
   -.218E+02 -.142E+01 -.497E+02   0.216E+02 0.153E+01 0.480E+02   0.221E+00 0.223E+00 0.202E+01   -.491E-04 0.113E-04 -.587E-05
   -.759E+01 0.361E+02 0.257E+02   0.718E+01 -.363E+02 -.246E+02   -.117E+00 -.374E+00 -.124E+01   -.649E-04 0.391E-04 0.979E-04
   0.410E+01 0.188E+02 0.997E+01   -.506E+01 -.189E+02 -.933E+01   0.102E+01 0.963E-01 -.251E+00   -.909E-04 -.128E-03 -.922E-04
   -.188E+02 -.162E+02 -.217E+02   0.180E+02 0.171E+02 0.207E+02   0.672E+00 -.800E+00 0.122E+01   -.145E-03 -.307E-04 0.722E-04
   0.289E+01 -.388E+02 0.399E+02   -.957E+01 0.432E+02 -.490E+02   0.633E+01 -.377E+01 0.881E+01   0.866E-04 -.365E-03 0.269E-03
   -.456E+02 0.511E+02 0.106E+02   0.503E+02 -.635E+02 -.113E+02   -.509E+01 0.112E+02 0.216E+00   -.358E-04 0.897E-05 -.906E-04
   0.209E+02 -.486E+02 0.265E+00   -.274E+02 0.567E+02 -.196E+01   0.630E+01 -.852E+01 0.998E+00   -.261E-04 -.348E-03 -.150E-03
   -.207E+02 -.105E+02 -.211E+02   0.236E+02 0.502E+01 0.284E+02   -.297E+01 0.339E+01 -.690E+01   0.382E-04 -.225E-03 -.101E-03
   0.105E+02 0.791E+01 -.154E+02   -.834E+01 -.190E+02 0.185E+02   -.137E+01 0.109E+02 -.280E+01   0.595E-04 0.849E-04 -.328E-04
   0.812E+02 -.384E+02 0.286E+02   -.904E+02 0.397E+02 -.283E+02   0.987E+01 -.159E+01 -.528E-01   -.419E-04 0.373E-03 0.318E-05
   0.725E+02 0.254E+02 -.686E+02   -.732E+02 -.280E+02 0.729E+02   0.967E+00 0.271E+01 -.471E+01   0.126E-03 -.239E-03 -.847E-04
   0.194E+02 0.539E+02 -.245E+02   -.211E+02 -.581E+02 0.332E+02   0.196E+01 0.421E+01 -.944E+01   0.957E-04 -.125E-03 0.235E-04
   -.232E+01 -.939E+02 0.598E+02   0.183E+01 0.976E+02 -.609E+02   0.605E+00 -.192E+01 0.772E+00   -.188E-03 -.500E-03 -.356E-04
   0.813E+02 -.717E+02 0.177E+02   -.837E+02 0.735E+02 -.168E+02   0.266E+01 -.147E+01 -.900E+00   -.313E-04 -.176E-04 -.139E-03
   -.873E+02 -.668E+01 0.582E+02   0.948E+02 0.954E+01 -.597E+02   -.703E+01 -.247E+01 0.147E+01   0.565E-05 -.925E-04 0.145E-03
   -.808E+02 -.224E+02 -.334E+02   0.840E+02 0.221E+02 0.340E+02   -.322E+01 0.108E+00 -.233E+00   -.369E-03 -.386E-03 0.246E-03
   -.305E+02 -.332E+02 -.431E+02   0.318E+02 0.360E+02 0.439E+02   -.896E+00 -.199E+01 -.317E+00   -.150E-03 -.583E-04 -.840E-04
   -.761E+02 -.544E+02 -.528E+02   0.823E+02 0.605E+02 0.551E+02   -.619E+01 -.618E+01 -.225E+01   -.192E-03 -.498E-04 -.700E-04
   0.143E+02 -.110E+02 0.592E+02   -.145E+02 0.129E+02 -.627E+02   -.290E+00 -.192E+01 0.430E+01   0.115E-03 -.210E-03 0.618E-04
   0.311E+02 -.119E+02 -.212E+01   -.306E+02 0.111E+02 0.162E+01   -.966E+00 0.180E+01 0.793E+00   0.280E-03 -.547E-03 -.375E-03
   0.396E+01 -.920E+02 -.375E+02   -.523E+01 0.988E+02 0.408E+02   0.102E+01 -.483E+01 -.213E+01   -.709E-04 -.325E-03 -.170E-03
   -.197E+02 0.860E+02 0.458E+02   0.199E+02 -.892E+02 -.469E+02   -.300E+00 0.406E+01 0.125E+01   0.127E-04 0.786E-04 0.182E-03
   0.294E+02 -.773E+02 0.381E+02   -.301E+02 0.791E+02 -.413E+02   0.465E+00 -.171E+01 0.259E+01   0.844E-04 0.342E-04 0.158E-03
   0.298E+02 0.143E+03 -.881E+02   -.322E+02 -.149E+03 0.903E+02   0.265E+01 0.529E+01 -.204E+01   -.467E-03 0.211E-03 -.475E-03
   -.290E+02 0.474E+02 -.198E+02   0.293E+02 -.473E+02 0.197E+02   -.608E+00 -.508E+00 0.143E+00   0.907E-04 0.595E-03 0.225E-03
   0.466E+02 0.599E+02 0.307E+02   -.538E+02 -.638E+02 -.309E+02   0.676E+01 0.352E+01 0.649E+00   -.167E-03 -.720E-04 -.123E-03
   0.397E+02 0.266E+02 -.267E+02   -.400E+02 -.264E+02 0.272E+02   0.206E+00 -.422E+00 -.429E+00   0.360E-03 0.345E-03 0.693E-03
   -.298E+02 -.152E+02 -.811E+01   0.295E+02 0.158E+02 0.812E+01   0.808E+00 -.123E+01 0.257E+00   0.480E-04 0.913E-05 -.117E-03
   0.139E+01 0.380E+02 0.379E+02   -.172E+00 -.444E+02 -.426E+02   -.158E+01 0.483E+01 0.385E+01   -.116E-03 0.268E-03 0.138E-03
   -.101E+01 -.994E+02 -.268E+02   0.144E+01 0.105E+03 0.283E+02   -.218E+00 -.437E+01 -.130E+01   0.651E-04 0.196E-03 -.457E-03
   -.194E+01 -.553E+02 0.135E+02   0.645E+01 0.594E+02 -.140E+02   -.483E+01 -.413E+01 -.896E-01   0.201E-03 0.253E-03 0.464E-04
   -.450E+02 0.229E+02 0.101E+03   0.485E+02 -.247E+02 -.105E+03   -.389E+01 0.237E+01 0.429E+01   0.678E-04 -.243E-03 -.755E-04
   0.513E+02 0.483E+02 0.495E+02   -.524E+02 -.518E+02 -.600E+02   0.761E+00 0.213E+01 0.106E+02   0.156E-03 0.480E-04 -.277E-03
   0.273E+02 0.830E+02 -.212E+02   -.273E+02 -.863E+02 0.233E+02   -.110E+00 0.280E+01 -.193E+01   0.162E-03 0.509E-03 0.946E-04
   0.231E+02 -.308E+02 0.190E+02   -.231E+02 0.308E+02 -.190E+02   -.513E+00 0.140E+00 0.277E-02   -.224E-03 0.102E-03 0.153E-03
   0.897E+01 -.160E+02 -.313E+02   -.945E+01 0.163E+02 0.319E+02   0.576E+00 -.106E+00 -.622E+00   -.414E-04 0.157E-04 -.132E-03
   0.196E+02 -.183E+02 -.354E+02   -.198E+02 0.189E+02 0.362E+02   0.137E-01 -.648E+00 -.657E+00   0.724E-04 -.533E-04 -.547E-05
   -.101E+03 0.732E+02 -.202E+02   0.103E+03 -.735E+02 0.201E+02   -.194E+01 0.111E+00 -.444E-01   0.164E-03 0.141E-04 -.156E-04
   -.162E+02 -.676E+02 -.326E+02   0.167E+02 0.678E+02 0.325E+02   -.351E+00 -.287E+00 0.795E-01   0.136E-03 -.266E-04 0.484E-05
 -----------------------------------------------------------------------------------------------
   -.444E+01 -.623E+01 -.316E+01   -.639E-13 0.568E-13 0.995E-13   0.443E+01 0.624E+01 0.317E+01   0.589E-03 -.695E-03 -.381E-03
 
 
 POSITION                                       TOTAL-FORCE (eV/Angst)
 -----------------------------------------------------------------------------------
      6.42739      9.17208      0.05863        -0.589469      0.972185     -0.564229
      7.50315      5.83352      7.55695         0.225215     -0.128001      0.099021
      2.35693      1.78795      0.35808         0.312657     -0.201693      0.229834
      1.57855      7.43732      2.54173        -0.170630      0.192128     -0.121697
      3.05990      2.12523      3.99959        -0.216002      0.126819     -0.026686
      2.05285      0.49690      8.18736        -0.145891      0.017138     -0.090558
      7.53066      5.73282      2.64896         0.134303     -0.189676      0.073898
      5.23923      0.74384      3.72601         0.351172     -0.418200     -0.040868
     10.08320      9.55873      7.17748        -0.124894      0.144126     -0.067420
      9.61863      4.12483      2.80865         0.073881     -0.016594     -0.094765
      4.42771      9.91079      6.49964        -0.052090     -0.166469      0.163733
      9.14179      6.03111      0.09915        -0.205641     -0.285248     -0.098307
      0.14075      3.72956      9.06603         0.934319      0.004848     -0.116597
      3.03931      5.36126      7.40170         0.293397      0.057414     -0.512070
      6.32143      2.35873     12.18490         0.361266     -0.270773      0.179048
      8.74108      1.89320     10.21230         0.568405      0.682717     -0.269958
      6.38973      5.52990     12.21350         0.323370     -0.272841     -0.254300
      4.74342      4.14727      5.33563         0.559233     -0.005784      0.089805
      4.87803      6.76788      1.82846        -0.425564      0.231931     -0.179399
      2.12685      7.68145     10.69860         0.136795      0.214337     -0.020591
      7.15703      2.46213      2.69712         0.103341     -0.163145      0.037436
      9.93576      7.15175      9.03260        -0.204321     -0.105730     -0.067316
      0.18865      3.80261      5.61971        -0.337146     -0.032695      0.221265
      9.30989      2.12927      0.50282         0.271472     -0.376856      0.020703
      7.36638      1.37809      5.54870         0.080049      0.070685     -0.241863
      5.56150      6.48557      9.57084        -0.043421     -0.009157     -0.060706
      6.39773      8.40401      3.07503         0.072071      0.331239      0.272473
      7.20953      0.33868      9.53286        -0.528254     -0.583823     -0.129410
      6.16441      2.85317      7.60007         0.057557     -0.034262      0.387558
      9.02802      8.91933      0.43677        -0.129881      0.116568      0.151096
      2.97745      6.22483      4.17598        -0.350813      0.633926     -0.250273
      2.90775      4.80999     10.92760        -0.381095     -1.126354     -0.475714
      0.97581      4.43160     12.10080        -0.204288     -0.438225     -0.692019
      2.02439      7.31585      6.02528        -0.040510     -2.120564      0.351352
     10.11530      6.36661      5.61265         0.815182     -0.196140      0.240184
      3.77625      1.08290      9.94815         0.709615     -0.284621      0.248716
      3.93267      9.09877      2.71275         0.194448      0.117663     -0.477966
      4.45378      9.35007     10.23300         0.217305      0.022359     -0.732955
      2.03375      9.29456      5.93826         0.110157      1.789246     -0.330945
      8.81323      7.55288      6.73711         0.251457      0.300205      0.061497
      0.26296      2.00349      7.30652         0.539366      0.386820     -0.050803
      5.10068      6.31559      4.15199         0.035072     -0.195722      0.347144
      4.05802      6.32268     11.72560         0.418854      0.734483      0.394330
      1.83058      3.98161      1.69383        -0.053701     -0.079787      0.002970
      1.86484      5.70233      9.23836        -0.429967     -0.082763      0.842286
      7.94115      3.83679      0.98765        -0.462404      1.001637      0.286488
      7.89418      5.81011     10.08520        -0.252000      1.962609      1.107390
      0.79773      2.49630     11.14700        -0.119590      0.872051      0.156765
      9.73516      6.68222      3.59370        -0.239272      0.006734     -0.600323
      0.91007      2.19790      2.32108         0.204540      0.120782      0.226342
      8.04197      0.48143     11.77630        -0.365986     -0.370481      0.078486
      8.57909      1.25651      7.55519        -0.461543     -0.336571      0.471818
      4.95664      1.81683      5.72479        -0.087606     -0.243825      0.002737
      7.05964      7.41054      1.08167         0.487977     -0.602651      0.259006
      8.22159      4.10137      9.10423        -0.357523     -1.630764     -0.863441
      4.68586      1.89740      1.74042         0.212683      1.233603      0.250317
      5.50002      2.26779      9.94948        -0.322479     -0.049653     -0.646447
      5.61572      8.74356      8.51826        -0.407234      0.527521      0.608870
      4.22519      0.08393      0.98480        -0.328760     -1.294878      0.144874
      2.49054      4.40664      5.09040        -0.087164     -0.504110      0.119098
      5.37747      5.08779      7.52598        -0.483984      0.118718     -0.018493
      8.13440      3.51235      4.64683         0.088791      0.200803     -0.031677
      0.80459      9.22251      9.38599        -0.194273     -0.074349      0.135821
      7.65186      0.23068      3.55209        -0.416881     -0.216770     -0.141130
      0.71682      7.76378      0.34367         0.076330     -0.082124      0.006569
 -----------------------------------------------------------------------------------
    total drift:                               -0.002174      0.001265      0.004997


--------------------------------------------------------------------------------------------------------



  FREE ENERGIE OF THE ION-ELECTRON SYSTEM (eV)
  ---------------------------------------------------
  free  energy   TOTEN  =      -258.81553508 eV

  energy  without entropy=     -258.81553508  energy(sigma->0) =     -258.81553508
 


--------------------------------------------------------------------------------------------------------


    POTLOK:  cpu time    0.0951: real time    0.0951


--------------------------------------------------------------------------------------------------------




--------------------------------------------------------------------------------------------------------


     LOOP+:  cpu time   55.6804: real time   55.7508
    4ORBIT:  cpu time    0.0000: real time    0.0000
 


 total charge     
 
# of ion       s       p       d       tot
------------------------------------------
    1        2.028   0.065   0.000   2.093
    2        2.020   0.056   0.000   2.076
    3        2.013   0.047   0.000   2.059
    4        2.014   0.043   0.000   2.057
    5        2.008   0.034   0.000   2.042
    6        2.014   0.045   0.000   2.059
    7        2.015   0.048   0.000   2.063
    8        2.026   0.065   0.000   2.091
    9        2.016   0.047   0.000   2.063
   10        2.014   0.048   0.000   2.062
   11        2.015   0.042   0.000   2.058
   12        2.011   0.040   0.000   2.051
   13        2.025   0.063   0.000   2.087
   14        2.023   0.058   0.000   2.081
   15        2.017   0.050   0.000   2.067
   16        2.024   0.060   0.000   2.084
   17        2.018   0.053   0.000   2.072
   18        2.021   0.058   0.000   2.078
   19        2.018   0.054   0.000   2.072
   20        2.011   0.041   0.000   2.053
   21        2.018   0.049   0.000   2.067
   22        2.011   0.040   0.000   2.051
   23        2.015   0.046   0.000   2.061
   24        2.026   0.065   0.000   2.091
   25        2.021   0.056   0.000   2.078
   26        2.014   0.045   0.000   2.059
   27        2.016   0.048   0.000   2.065
   28        2.018   0.048   0.000   2.066
   29        2.013   0.044   0.000   2.057
   30        2.020   0.051   0.000   2.071
   31        1.066   1.345   0.000   2.411
   32        1.102   1.312   0.000   2.414
   33        1.092   1.322   0.000   2.414
   34        1.066   1.395   0.000   2.460
   35        1.065   1.347   0.000   2.411
   36        1.361   2.259   0.000   3.620
   37        1.353   2.329   0.000   3.682
   38        1.370   2.239   0.000   3.609
   39        1.333   2.442   0.000   3.776
   40        1.335   2.428   0.000   3.764
   41        1.328   2.384   0.000   3.712
   42        1.334   2.409   0.000   3.743
   43        1.332   2.434   0.000   3.766
   44        1.360   2.307   0.000   3.667
   45        1.333   2.427   0.000   3.760
   46        1.309   2.476   0.000   3.785
   47        1.324   2.415   0.000   3.739
   48        1.340   2.406   0.000   3.746
   49        1.333   2.415   0.000   3.748
   50        1.348   2.345   0.000   3.693
   51        1.305   2.508   0.000   3.813
   52        1.326   2.393   0.000   3.718
   53        1.306   2.478   0.000   3.784
   54        1.306   2.523   0.000   3.830
   55        1.335   2.423   0.000   3.758
   56        1.338   2.408   0.000   3.747
   57        1.351   2.348   0.000   3.699
   58        1.347   2.326   0.000   3.673
   59        1.357   2.285   0.000   3.642
   60        1.330   2.450   0.000   3.780
   61        1.589   3.610   0.000   5.199
   62        1.591   3.573   0.000   5.164
   63        1.589   3.590   0.000   5.180
   64        1.590   3.571   0.000   5.162
   65        1.589   3.588   0.000   5.177
--------------------------------------------------
tot        107.258  86.020   0.000 193.278
 

 total amount of memory used by VASP MPI-rank0    42204. kBytes
=======================================================================

   base      :      30000. kBytes
   nonl-proj :       5360. kBytes
   fftplans  :       1886. kBytes
   grid      :       3386. kBytes
   one-center:         27. kBytes
   wavefun   :       1545. kBytes
 
  
  
 General timing and accounting informations for this job:
 ========================================================
  
                  Total CPU time used (sec):       64.068
                            User time (sec):       59.863
                          System time (sec):        4.206
                         Elapsed time (sec):       65.302
  
                   Maximum memory used (kb):      158112.
                   Average memory used (kb):           0.
  
                          Minor page faults:        55842
                          Major page faults:            0
                 Voluntary context switches:         3344
