<?xml version="1.0" encoding="ISO-8859-1"?>
<modeling>
 <generator>
  <i name="program" type="string">vasp </i>
  <i name="version" type="string">5.4.4.18Apr17-6-g9f103f2a35  </i>
  <i name="subversion" type="string">(build Jan 22 2020 12:49:05) complex            parallel </i>
  <i name="platform" type="string">Bebop BDW IPS19.0.5 gcc9.2.0 </i>
  <i name="date" type="string">2022 09 29 </i>
  <i name="time" type="string">09:58:28 </i>
 </generator>
 <incar>
  <i type="string" name="SYSTEM"> LPSC</i>
  <i type="string" name="PREC">normal</i>
  <i type="int" name="IALGO">    48</i>
  <i type="int" name="ISPIN">     1</i>
  <i type="int" name="NELM">   100</i>
  <i type="int" name="IBRION">     2</i>
  <i name="EDIFF">      0.00000100</i>
  <i name="EDIFFG">     -0.01000000</i>
  <i type="int" name="NSW">     1</i>
  <i type="int" name="ISIF">     2</i>
  <i type="int" name="ISYM">     0</i>
  <i name="ENCUT">    500.00000000</i>
  <i type="int" name="ISMEAR">     0</i>
  <i name="SIGMA">      0.05000000</i>
  <i type="logical" name="LWAVE"> F  </i>
  <i type="logical" name="LCHARG"> F  </i>
  <i type="int" name="LORBIT">    11</i>
  <v type="int" name="KPOINT_BSE">    -1     0     0     0</v>
  <i type="int" name="NELM">   100</i>
 </incar>
 <structure name="primitive_cell" >
  <crystal>
   <varray name="basis" >
    <v>      10.25000000       0.00000000       0.00000000 </v>
    <v>       0.00000000      10.25000000       0.00000000 </v>
    <v>       0.00000000       0.00000000      12.35000000 </v>
   </varray>
   <i name="volume">   1297.52187500 </i>
   <varray name="rec_basis" >
    <v>       0.09756098       0.00000000       0.00000000 </v>
    <v>       0.00000000       0.09756098       0.00000000 </v>
    <v>       0.00000000       0.00000000       0.08097166 </v>
   </varray>
  </crystal>
  <varray name="positions" >
   <v>      -0.37293756      -0.10516293       0.00474717 </v>
   <v>      -0.31125463      -0.27702049       0.08758462 </v>
   <v>      -0.21541756       0.04696917      -0.04645344 </v>
   <v>      -0.11921756      -0.12982146       0.03536632 </v>
   <v>       0.41221366       0.00818782       0.07974057 </v>
   <v>       0.43451512      -0.08779805      -0.17141700 </v>
   <v>      -0.37583122      -0.18009659       0.24899028 </v>
   <v>      -0.29663122       0.03304224      -0.22810850 </v>
   <v>       0.47590537      -0.33971902       0.14805344 </v>
   <v>      -0.38327512       0.23012000      -0.01336842 </v>
   <v>       0.38367512      -0.11231512       0.21965587 </v>
   <v>      -0.37661171      -0.46049756      -0.01105263 </v>
   <v>       0.39590439      -0.38315317      -0.05055870 </v>
   <v>       0.45715707       0.18511220       0.14092470 </v>
   <v>      -0.25347707       0.02250556       0.28761862 </v>
   <v>      -0.45212488      -0.14696976      -0.31026235 </v>
   <v>      -0.45741463      -0.36726146      -0.22503320 </v>
   <v>      -0.10811805      -0.41159902       0.00802815 </v>
   <v>       0.36841463       0.10564878      -0.19448178 </v>
   <v>      -0.46341268       0.22124780      -0.19437409 </v>
   <v>      -0.48885561       0.07256937       0.30170121 </v>
   <v>      -0.09171805       0.20773366       0.04071401 </v>
   <v>      -0.22983610      -0.43316000      -0.18338462 </v>
   <v>      -0.14721171       0.18470244      -0.17309312 </v>
   <v>      -0.26530146      -0.44070049       0.21449069 </v>
   <v>      -0.30175317       0.24020780       0.21839028 </v>
   <v>       0.06993366      -0.24255805       0.02782745 </v>
   <v>       0.20749756      -0.25059024      -0.13371660 </v>
   <v>       0.22994439       0.17443415       0.02899466 </v>
   <v>       0.49762732      -0.38384488       0.33619352 </v>
   <v>      -0.22525366       0.37432098       0.07997190 </v>
   <v>      -0.03065756      -0.30226829      -0.26861538 </v>
   <v>      -0.05022829      -0.34807610       0.29098785 </v>
   <v>       0.07849707      -0.10024293      -0.24000081 </v>
   <v>       0.15400488      -0.27440780       0.20580810 </v>
   <v>       0.28368293       0.46926732      -0.11517409 </v>
   <v>      -0.16301561       0.12258634      -0.38824372 </v>
   <v>       0.07782771       0.24354146      -0.09740891 </v>
   <v>      -0.26798537      -0.43087610      -0.38810121 </v>
   <v>      -0.28132878       0.13444780       0.44928745 </v>
   <v>       0.29852683       0.20733951       0.32385344 </v>
   <v>       0.29048293      -0.39269951       0.33813603 </v>
   <v>       0.08878771       0.21442927       0.18794170 </v>
   <v>      -0.39859415       0.27835805      -0.38460972 </v>
   <v>       0.20027805       0.04847776      -0.33705587 </v>
   <v>       0.43197171      -0.03309366      -0.47371336 </v>
   <v>      -0.19789366       0.40013366      -0.26281538 </v>
   <v>      -0.14017268      -0.26313366      -0.45448502 </v>
   <v>      -0.01627317      -0.06744098      -0.41882753 </v>
   <v>      -0.47536878       0.49636976      -0.39060891 </v>
   <v>       0.48357463       0.17725171       0.46354575 </v>
   <v>       0.18193561      -0.44367512      -0.25195466 </v>
   <v>      -0.06159707       0.40242244       0.22742105 </v>
   <v>      -0.20640000       0.34266829       0.37626154 </v>
   <v>       0.09520098       0.43235122      -0.02017814 </v>
   <v>       0.17859317       0.38844976       0.13715223 </v>
   <v>       0.01373132       0.36385951      -0.26590850 </v>
   <v>       0.29651805      -0.47695024      -0.40067206 </v>
   <v>       0.02565434       0.19546244      -0.40837895 </v>
   <v>      -0.01314146      -0.37886732       0.45446559 </v>
   <v>       0.19841463      -0.09321366       0.48083077 </v>
   <v>       0.46277268       0.40461171       0.43203482 </v>
   <v>       0.19750146      -0.28625854       0.48787692 </v>
   <v>       0.24297951       0.42991610       0.41217814 </v>
   <v>       0.01840449       0.37098634       0.45503725 </v>
  </varray>
 </structure>
 <varray name="primitive_index" >
  <v type="int" >        1 </v>
  <v type="int" >       54 </v>
  <v type="int" >       51 </v>
  <v type="int" >       30 </v>
  <v type="int" >       59 </v>
  <v type="int" >       38 </v>
  <v type="int" >       27 </v>
  <v type="int" >       28 </v>
  <v type="int" >       19 </v>
  <v type="int" >       15 </v>
  <v type="int" >       37 </v>
  <v type="int" >       17 </v>
  <v type="int" >       43 </v>
  <v type="int" >       56 </v>
  <v type="int" >       64 </v>
  <v type="int" >       58 </v>
  <v type="int" >       26 </v>
  <v type="int" >       12 </v>
  <v type="int" >       36 </v>
  <v type="int" >       57 </v>
  <v type="int" >        8 </v>
  <v type="int" >       24 </v>
  <v type="int" >       47 </v>
  <v type="int" >       16 </v>
  <v type="int" >        7 </v>
  <v type="int" >       21 </v>
  <v type="int" >       65 </v>
  <v type="int" >       20 </v>
  <v type="int" >        3 </v>
  <v type="int" >       42 </v>
  <v type="int" >       46 </v>
  <v type="int" >       22 </v>
  <v type="int" >       49 </v>
  <v type="int" >       63 </v>
  <v type="int" >        4 </v>
  <v type="int" >       32 </v>
  <v type="int" >       52 </v>
  <v type="int" >       48 </v>
  <v type="int" >        2 </v>
  <v type="int" >       25 </v>
  <v type="int" >        5 </v>
  <v type="int" >       31 </v>
  <v type="int" >       50 </v>
  <v type="int" >       29 </v>
  <v type="int" >        6 </v>
  <v type="int" >       11 </v>
  <v type="int" >       55 </v>
  <v type="int" >       40 </v>
  <v type="int" >        9 </v>
  <v type="int" >       61 </v>
  <v type="int" >       53 </v>
  <v type="int" >       45 </v>
  <v type="int" >       10 </v>
  <v type="int" >       62 </v>
  <v type="int" >       33 </v>
  <v type="int" >       44 </v>
  <v type="int" >       13 </v>
  <v type="int" >       14 </v>
  <v type="int" >       41 </v>
  <v type="int" >       35 </v>
  <v type="int" >       39 </v>
  <v type="int" >       18 </v>
  <v type="int" >       34 </v>
  <v type="int" >       60 </v>
  <v type="int" >       23 </v>
 </varray>
 <kpoints>
  <generation param="Gamma">
   <v type="int" name="divisions">       1        1        1 </v>
   <v name="usershift">      0.00000000       0.00000000       0.00000000 </v>
   <v name="genvec1">      1.00000000       0.00000000       0.00000000 </v>
   <v name="genvec2">      0.00000000       1.00000000       0.00000000 </v>
   <v name="genvec3">      0.00000000       0.00000000       1.00000000 </v>
   <v name="shift">      0.00000000       0.00000000       0.00000000 </v>
  </generation>
  <varray name="kpointlist" >
   <v>       0.00000000       0.00000000       0.00000000 </v>
  </varray>
  <varray name="weights" >
   <v>       1.00000000 </v>
  </varray>
 </kpoints>
 <parameters>
  <separator name="general" >
   <i type="string" name="SYSTEM">LPSC</i>
   <i type="logical" name="LCOMPAT"> F  </i>
  </separator>
  <separator name="electronic" >
   <i type="string" name="PREC">normal</i>
   <i name="ENMAX">    500.00000000</i>
   <i name="ENAUG">    628.94500000</i>
   <i name="EDIFF">      0.00000100</i>
   <i type="int" name="IALGO">    48</i>
   <i type="int" name="IWAVPR">    11</i>
   <i type="int" name="NBANDS">   184</i>
   <i name="NELECT">    300.00000000</i>
   <i type="int" name="TURBO">     0</i>
   <i type="int" name="IRESTART">     0</i>
   <i type="int" name="NREBOOT">     0</i>
   <i type="int" name="NMIN">     0</i>
   <i name="EREF">      0.00000000</i>
   <separator name="electronic smearing" >
    <i type="int" name="ISMEAR">     0</i>
    <i name="SIGMA">      0.05000000</i>
    <i name="KSPACING">      0.50000000</i>
    <i type="logical" name="KGAMMA"> T  </i>
   </separator>
   <separator name="electronic projectors" >
    <i type="logical" name="LREAL"> F  </i>
    <v name="ROPT">      0.00000000      0.00000000      0.00000000      0.00000000</v>
    <i type="int" name="LMAXPAW">  -100</i>
    <i type="int" name="LMAXMIX">     2</i>
    <i type="logical" name="NLSPLINE"> F  </i>
   </separator>
   <separator name="electronic startup" >
    <i type="int" name="ISTART">     0</i>
    <i type="int" name="ICHARG">     2</i>
    <i type="int" name="INIWAV">     1</i>
   </separator>
   <separator name="electronic spin" >
    <i type="int" name="ISPIN">     1</i>
    <i type="logical" name="LNONCOLLINEAR"> F  </i>
    <v name="MAGMOM">      1.00000000      1.00000000      1.00000000      1.00000000      1.00000000      1.00000000      1.00000000      1.00000000      1.00000000      1.00000000      1.00000000      1.00000000      1.00000000      1.00000000      1.00000000      1.00000000      1.00000000      1.00000000      1.00000000      1.00000000
      1.00000000      1.00000000      1.00000000      1.00000000      1.00000000      1.00000000      1.00000000      1.00000000      1.00000000      1.00000000      1.00000000      1.00000000      1.00000000      1.00000000      1.00000000      1.00000000      1.00000000      1.00000000      1.00000000      1.00000000
      1.00000000      1.00000000      1.00000000      1.00000000      1.00000000      1.00000000      1.00000000      1.00000000      1.00000000      1.00000000      1.00000000      1.00000000      1.00000000      1.00000000      1.00000000      1.00000000      1.00000000      1.00000000      1.00000000      1.00000000
      1.00000000      1.00000000      1.00000000      1.00000000      1.00000000</v>
    <i name="NUPDOWN">     -1.00000000</i>
    <i type="logical" name="LSORBIT"> F  </i>
    <v name="SAXIS">      0.00000000      0.00000000      1.00000000</v>
    <i type="logical" name="LSPIRAL"> F  </i>
    <v name="QSPIRAL">      0.00000000      0.00000000      0.00000000</v>
    <i type="logical" name="LZEROZ"> F  </i>
   </separator>
   <separator name="electronic exchange-correlation" >
    <i type="logical" name="LASPH"> F  </i>
    <i type="logical" name="LMETAGGA"> F  </i>
   </separator>
   <separator name="electronic convergence" >
    <i type="int" name="NELM">   100</i>
    <i type="int" name="NELMDL">   -12</i>
    <i type="int" name="NELMIN">     2</i>
    <i name="ENINI">    500.00000000</i>
    <separator name="electronic convergence detail" >
     <i type="logical" name="LDIAG"> T  </i>
     <i type="logical" name="LSUBROT"> F  </i>
     <i name="WEIMIN">      0.00100000</i>
     <i name="EBREAK">      0.00000000</i>
     <i name="DEPER">      0.30000000</i>
     <i type="int" name="NRMM">     4</i>
     <i name="TIME">      0.40000000</i>
    </separator>
   </separator>
   <separator name="electronic mixer" >
    <i name="AMIX">      0.40000000</i>
    <i name="BMIX">      1.00000000</i>
    <i name="AMIN">      0.10000000</i>
    <i name="AMIX_MAG">      1.60000000</i>
    <i name="BMIX_MAG">      1.00000000</i>
    <separator name="electronic mixer details" >
     <i type="int" name="IMIX">     4</i>
     <i type="logical" name="MIXFIRST"> F  </i>
     <i type="int" name="MAXMIX">   -45</i>
     <i name="WC">    100.00000000</i>
     <i type="int" name="INIMIX">     1</i>
     <i type="int" name="MIXPRE">     1</i>
     <i type="int" name="MREMOVE">     5</i>
    </separator>
   </separator>
   <separator name="electronic dipolcorrection" >
    <i type="logical" name="LDIPOL"> F  </i>
    <i type="logical" name="LMONO"> F  </i>
    <i type="int" name="IDIPOL">     0</i>
    <i name="EPSILON">      1.00000000</i>
    <v name="DIPOL">   -100.00000000   -100.00000000   -100.00000000</v>
    <i name="EFIELD">      0.00000000</i>
   </separator>
  </separator>
  <separator name="grids" >
   <i type="int" name="NGX">    56</i>
   <i type="int" name="NGY">    56</i>
   <i type="int" name="NGZ">    70</i>
   <i type="int" name="NGXF">   112</i>
   <i type="int" name="NGYF">   112</i>
   <i type="int" name="NGZF">   140</i>
   <i type="logical" name="ADDGRID"> F  </i>
  </separator>
  <separator name="ionic" >
   <i type="int" name="NSW">     1</i>
   <i type="int" name="IBRION">     2</i>
   <i type="int" name="MDALGO">     0</i>
   <i type="int" name="ISIF">     2</i>
   <i name="PSTRESS">      0.00000000</i>
   <i name="EDIFFG">     -0.01000000</i>
   <i type="int" name="NFREE">     1</i>
   <i name="POTIM">      0.50000000</i>
   <i name="SMASS">     -3.00000000</i>
   <i name="SCALEE">      1.00000000</i>
  </separator>
  <separator name="ionic md" >
   <i name="TEBEG">      0.00010000</i>
   <i name="TEEND">      0.00010000</i>
   <i type="int" name="NBLOCK">     1</i>
   <i type="int" name="KBLOCK">     1</i>
   <i type="int" name="NPACO">   256</i>
   <i name="APACO">     16.00000000</i>
  </separator>
  <separator name="symmetry" >
   <i type="int" name="ISYM">     0</i>
   <i name="SYMPREC">      0.00001000</i>
  </separator>
  <separator name="dos" >
   <i type="int" name="LORBIT">    11</i>
   <v name="RWIGS">     -1.00000000     -1.00000000     -1.00000000     -1.00000000</v>
   <i type="int" name="NEDOS">   301</i>
   <i name="EMIN">     10.00000000</i>
   <i name="EMAX">    -10.00000000</i>
   <i name="EFERMI">      0.00000000</i>
  </separator>
  <separator name="writing" >
   <i type="int" name="NWRITE">     2</i>
   <i type="logical" name="LWAVE"> F  </i>
   <i type="logical" name="LDOWNSAMPLE"> F  </i>
   <i type="logical" name="LCHARG"> F  </i>
   <i type="logical" name="LPARD"> F  </i>
   <i type="logical" name="LVTOT"> F  </i>
   <i type="logical" name="LVHAR"> F  </i>
   <i type="logical" name="LELF"> F  </i>
   <i type="logical" name="LOPTICS"> F  </i>
   <v name="STM">      0.00000000      0.00000000      0.00000000      0.00000000      0.00000000      0.00000000      0.00000000</v>
  </separator>
  <separator name="performance" >
   <i type="int" name="NPAR">     8</i>
   <i type="int" name="NSIM">     4</i>
   <i type="int" name="NBLK">    -1</i>
   <i type="logical" name="LPLANE"> T  </i>
   <i type="logical" name="LSCALAPACK"> T  </i>
   <i type="logical" name="LSCAAWARE"> F  </i>
   <i type="logical" name="LSCALU"> F  </i>
   <i type="logical" name="LASYNC"> F  </i>
   <i type="logical" name="LORBITALREAL"> F  </i>
  </separator>
  <separator name="miscellaneous" >
   <i type="int" name="IDIOT">     3</i>
   <i type="int" name="ISPECIAL">     0</i>
   <i type="logical" name="LMUSIC"> F  </i>
   <v name="POMASS">      7.01000000     30.97400000     32.06600000     35.45300000</v>
   <v name="DARWINR">      0.00000000      0.00000000      0.00000000      0.00000000</v>
   <v name="DARWINV">      1.00000000      1.00000000      1.00000000      1.00000000</v>
   <i type="logical" name="LCORR"> T  </i>
  </separator>
  <i type="logical" name="GGA_COMPAT"> T  </i>
  <i type="logical" name="LBERRY"> F  </i>
  <i type="int" name="ICORELEVEL">     0</i>
  <i type="logical" name="LDAU"> F  </i>
  <i type="int" name="I_CONSTRAINED_M">     0</i>
  <separator name="electronic exchange-correlation" >
   <i type="string" name="GGA">--</i>
   <i type="int" name="VOSKOWN">     0</i>
   <i type="logical" name="LHFCALC"> F  </i>
   <i type="string" name="PRECFOCK"></i>
   <i type="logical" name="LSYMGRAD"> F  </i>
   <i type="logical" name="LHFONE"> F  </i>
   <i type="logical" name="LRHFCALC"> F  </i>
   <i type="logical" name="LTHOMAS"> F  </i>
   <i type="logical" name="LMODELHF"> F  </i>
   <i name="ENCUT4O">     -1.00000000</i>
   <i type="int" name="EXXOEP">     0</i>
   <i type="int" name="FOURORBIT">     0</i>
   <i name="AEXX">      0.00000000</i>
   <i name="HFALPHA">      0.00000000</i>
   <i name="MCALPHA">      0.00000000</i>
   <i name="ALDAX">      1.00000000</i>
   <i name="AGGAX">      1.00000000</i>
   <i name="ALDAC">      1.00000000</i>
   <i name="AGGAC">      1.00000000</i>
   <i type="int" name="NKREDX">     1</i>
   <i type="int" name="NKREDY">     1</i>
   <i type="int" name="NKREDZ">     1</i>
   <i type="logical" name="SHIFTRED"> F  </i>
   <i type="logical" name="ODDONLY"> F  </i>
   <i type="logical" name="EVENONLY"> F  </i>
   <i type="int" name="LMAXFOCK">     0</i>
   <i type="int" name="NMAXFOCKAE">     0</i>
   <i type="logical" name="LFOCKAEDFT"> F  </i>
   <i name="HFSCREEN">      0.00000000</i>
   <i name="HFSCREENC">      0.00000000</i>
   <i type="int" name="NBANDSGWLOW">     0</i>
  </separator>
  <separator name="vdW DFT" >
   <i type="logical" name="LUSE_VDW"> F  </i>
   <i name="Zab_VDW">     -0.84910000</i>
   <i name="PARAM1">      0.12340000</i>
   <i name="PARAM2">      1.00000000</i>
   <i name="PARAM3">      0.00000000</i>
  </separator>
  <separator name="model GW" >
   <i type="int" name="MODEL_GW">     0</i>
   <i name="MODEL_EPS0">     11.97712500</i>
   <i name="MODEL_ALPHA">      1.00000000</i>
  </separator>
  <separator name="linear response parameters" >
   <i type="logical" name="LEPSILON"> F  </i>
   <i type="logical" name="LRPA"> F  </i>
   <i type="logical" name="LNABLA"> F  </i>
   <i type="logical" name="LVEL"> F  </i>
   <i type="int" name="KINTER">     0</i>
   <i name="CSHIFT">      0.10000000</i>
   <i name="OMEGAMAX">     -1.00000000</i>
   <i name="DEG_THRESHOLD">      0.00200000</i>
   <i name="RTIME">     -0.10000000</i>
   <i name="WPLASMAI">      0.00000000</i>
   <v name="DFIELD">      0.00000000      0.00000000      0.00000000</v>
   <v name="WPLASMA">      0.00000000      0.00000000      0.00000000      0.00000000      0.00000000      0.00000000      0.00000000      0.00000000      0.00000000</v>
  </separator>
  <separator name="orbital magnetization" >
   <i type="logical" name="NUCIND"> F  </i>
   <v name="MAGPOS">      0.00000000      0.00000000      0.00000000</v>
   <i type="logical" name="LNICSALL"> T  </i>
   <i type="logical" name="ORBITALMAG"> F  </i>
   <i type="logical" name="LMAGBLOCH"> F  </i>
   <i type="logical" name="LCHIMAG"> F  </i>
   <i type="logical" name="LGAUGE"> T  </i>
   <i type="int" name="MAGATOM">     0</i>
   <v name="MAGDIPOL">      0.00000000      0.00000000      0.00000000</v>
   <v name="AVECCONST">      0.00000000      0.00000000      0.00000000</v>
  </separator>
  <separator name="response functions" >
   <i type="logical" name="LADDER"> F  </i>
   <i type="logical" name="LRPAFORCE"> F  </i>
   <i type="logical" name="LFXC"> F  </i>
   <i type="logical" name="LHARTREE"> T  </i>
   <i type="int" name="IBSE">     0</i>
   <v type="int" name="KPOINT">    -1     0     0     0</v>
   <i type="logical" name="LTCTE"> F  </i>
   <i type="logical" name="LTETE"> F  </i>
   <i type="logical" name="LTRIPLET"> F  </i>
   <i type="logical" name="LFXCEPS"> F  </i>
   <i type="logical" name="LFXHEG"> F  </i>
   <i type="int" name="NATURALO">     2</i>
   <i type="logical" name="L2ORDER"> F  </i>
   <i type="logical" name="LMP2LT"> F  </i>
   <i type="logical" name="LUSEW"> F  </i>
   <i name="ENCUTGW">     -2.00000000</i>
   <i name="ENCUTGWSOFT">     -2.00000000</i>
   <i name="ENCUTLF">     -1.00000000</i>
   <i type="int" name="LMAXMP2">    -1</i>
   <i name="SCISSOR">      0.00000000</i>
   <i type="int" name="NOMEGA">     0</i>
   <i type="int" name="NOMEGAR">     0</i>
   <i type="int" name="NBANDSGW">    -1</i>
   <i type="int" name="NBANDSO">    -1</i>
   <i type="int" name="NBANDSV">    -1</i>
   <i type="int" name="NELM">   100</i>
   <i type="int" name="NELMHF">     1</i>
   <i type="int" name="DIM">     3</i>
   <i type="int" name="ANTIRES">     0</i>
   <i name="OMEGAMAX">    -30.00000000</i>
   <i name="OMEGAMIN">    -30.00000000</i>
   <i name="OMEGATL">   -200.00000000</i>
   <i type="int" name="OMEGAGRID">   140</i>
   <i name="CSHIFT">     -0.10000000</i>
   <i type="logical" name="SELFENERGY"> F  </i>
   <i type="logical" name="LSPECTRAL"> F  </i>
   <i type="logical" name="LSPECTRALGW"> F  </i>
   <i type="logical" name="LSINGLES"> F  </i>
   <i type="logical" name="LFERMIGW"> F  </i>
   <i type="logical" name="ODDONLYGW"> F  </i>
   <i type="logical" name="EVENONLYGW"> F  </i>
   <i type="int" name="NKREDLFX">     1</i>
   <i type="int" name="NKREDLFY">     1</i>
   <i type="int" name="NKREDLFZ">     1</i>
   <i type="int" name="MAXMEM">  2800</i>
   <i type="int" name="TELESCOPE">     0</i>
   <i type="int" name="TAUPAR">     1</i>
   <i type="int" name="OMEGAPAR">    -1</i>
   <i name="LAMBDA">      1.00000000</i>
  </separator>
  <separator name="External order field" >
   <i name="OFIELD_KAPPA">      0.00000000</i>
   <v name="OFIELD_K">      0.00000000      0.00000000      0.00000000</v>
   <i name="OFIELD_Q6_NEAR">      0.00000000</i>
   <i name="OFIELD_Q6_FAR">      0.00000000</i>
   <i name="OFIELD_A">      0.00000000</i>
  </separator>
 </parameters>
 <atominfo>
  <atoms>      65 </atoms>
  <types>       4 </types>
  <array name="atoms" >
   <dimension dim="1">ion</dimension>
   <field type="string">element</field>
   <field type="int">atomtype</field>
   <set>
    <rc><c>Li</c><c>   1</c></rc>
    <rc><c>Li</c><c>   1</c></rc>
    <rc><c>Li</c><c>   1</c></rc>
    <rc><c>Li</c><c>   1</c></rc>
    <rc><c>Li</c><c>   1</c></rc>
    <rc><c>Li</c><c>   1</c></rc>
    <rc><c>Li</c><c>   1</c></rc>
    <rc><c>Li</c><c>   1</c></rc>
    <rc><c>Li</c><c>   1</c></rc>
    <rc><c>Li</c><c>   1</c></rc>
    <rc><c>Li</c><c>   1</c></rc>
    <rc><c>Li</c><c>   1</c></rc>
    <rc><c>Li</c><c>   1</c></rc>
    <rc><c>Li</c><c>   1</c></rc>
    <rc><c>Li</c><c>   1</c></rc>
    <rc><c>Li</c><c>   1</c></rc>
    <rc><c>Li</c><c>   1</c></rc>
    <rc><c>Li</c><c>   1</c></rc>
    <rc><c>Li</c><c>   1</c></rc>
    <rc><c>Li</c><c>   1</c></rc>
    <rc><c>Li</c><c>   1</c></rc>
    <rc><c>Li</c><c>   1</c></rc>
    <rc><c>Li</c><c>   1</c></rc>
    <rc><c>Li</c><c>   1</c></rc>
    <rc><c>Li</c><c>   1</c></rc>
    <rc><c>Li</c><c>   1</c></rc>
    <rc><c>Li</c><c>   1</c></rc>
    <rc><c>Li</c><c>   1</c></rc>
    <rc><c>Li</c><c>   1</c></rc>
    <rc><c>Li</c><c>   1</c></rc>
    <rc><c>P </c><c>   2</c></rc>
    <rc><c>P </c><c>   2</c></rc>
    <rc><c>P </c><c>   2</c></rc>
    <rc><c>P </c><c>   2</c></rc>
    <rc><c>P </c><c>   2</c></rc>
    <rc><c>S </c><c>   3</c></rc>
    <rc><c>S </c><c>   3</c></rc>
    <rc><c>S </c><c>   3</c></rc>
    <rc><c>S </c><c>   3</c></rc>
    <rc><c>S </c><c>   3</c></rc>
    <rc><c>S </c><c>   3</c></rc>
    <rc><c>S </c><c>   3</c></rc>
    <rc><c>S </c><c>   3</c></rc>
    <rc><c>S </c><c>   3</c></rc>
    <rc><c>S </c><c>   3</c></rc>
    <rc><c>S </c><c>   3</c></rc>
    <rc><c>S </c><c>   3</c></rc>
    <rc><c>S </c><c>   3</c></rc>
    <rc><c>S </c><c>   3</c></rc>
    <rc><c>S </c><c>   3</c></rc>
    <rc><c>S </c><c>   3</c></rc>
    <rc><c>S </c><c>   3</c></rc>
    <rc><c>S </c><c>   3</c></rc>
    <rc><c>S </c><c>   3</c></rc>
    <rc><c>S </c><c>   3</c></rc>
    <rc><c>S </c><c>   3</c></rc>
    <rc><c>S </c><c>   3</c></rc>
    <rc><c>S </c><c>   3</c></rc>
    <rc><c>S </c><c>   3</c></rc>
    <rc><c>S </c><c>   3</c></rc>
    <rc><c>Cl</c><c>   4</c></rc>
    <rc><c>Cl</c><c>   4</c></rc>
    <rc><c>Cl</c><c>   4</c></rc>
    <rc><c>Cl</c><c>   4</c></rc>
    <rc><c>Cl</c><c>   4</c></rc>
   </set>
  </array>
  <array name="atomtypes" >
   <dimension dim="1">type</dimension>
   <field type="int">atomspertype</field>
   <field type="string">element</field>
   <field>mass</field>
   <field>valence</field>
   <field type="string">pseudopotential</field>
   <set>
    <rc><c>  30</c><c>Li</c><c>      7.01000000</c><c>      3.00000000</c><c>  PAW_PBE Li_sv 10Sep2004               </c></rc>
    <rc><c>   5</c><c>P </c><c>     30.97400000</c><c>      5.00000000</c><c>  PAW_PBE P 06Sep2000                   </c></rc>
    <rc><c>  25</c><c>S </c><c>     32.06600000</c><c>      6.00000000</c><c>  PAW_PBE S 06Sep2000                   </c></rc>
    <rc><c>   5</c><c>Cl</c><c>     35.45300000</c><c>      7.00000000</c><c>  PAW_PBE Cl 06Sep2000                  </c></rc>
   </set>
  </array>
 </atominfo>
 <structure name="initialpos" >
  <crystal>
   <varray name="basis" >
    <v>      10.25000000       0.00000000       0.00000000 </v>
    <v>       0.00000000      10.25000000       0.00000000 </v>
    <v>       0.00000000       0.00000000      12.35000000 </v>
   </varray>
   <i name="volume">   1297.52187500 </i>
   <varray name="rec_basis" >
    <v>       0.09756098       0.00000000       0.00000000 </v>
    <v>       0.00000000       0.09756098       0.00000000 </v>
    <v>       0.00000000       0.00000000       0.08097166 </v>
   </varray>
  </crystal>
  <varray name="positions" >
   <v>       0.62706244       0.89483707       0.00474717 </v>
   <v>       0.73201463       0.56912390       0.61189879 </v>
   <v>       0.22994439       0.17443415       0.02899466 </v>
   <v>       0.15400488       0.72559220       0.20580810 </v>
   <v>       0.29852683       0.20733951       0.32385344 </v>
   <v>       0.20027805       0.04847776       0.66294413 </v>
   <v>       0.73469854       0.55929951       0.21449069 </v>
   <v>       0.51114439       0.07256937       0.30170121 </v>
   <v>       0.98372683       0.93255902       0.58117247 </v>
   <v>       0.93840293       0.40242244       0.22742105 </v>
   <v>       0.43197171       0.96690634       0.52628664 </v>
   <v>       0.89188195       0.58840098       0.00802815 </v>
   <v>       0.01373132       0.36385951       0.73409150 </v>
   <v>       0.29651805       0.52304976       0.59932794 </v>
   <v>       0.61672488       0.23012000       0.98663158 </v>
   <v>       0.85278829       0.18470244       0.82690688 </v>
   <v>       0.62338829       0.53950244       0.98894737 </v>
   <v>       0.46277268       0.40461171       0.43203482 </v>
   <v>       0.47590537       0.66028098       0.14805344 </v>
   <v>       0.20749756       0.74940976       0.86628340 </v>
   <v>       0.69824683       0.24020780       0.21839028 </v>
   <v>       0.96934244       0.69773171       0.73138462 </v>
   <v>       0.01840449       0.37098634       0.45503725 </v>
   <v>       0.90828195       0.20773366       0.04071401 </v>
   <v>       0.71867122       0.13444780       0.44928745 </v>
   <v>       0.54258537       0.63273854       0.77496680 </v>
   <v>       0.62416878       0.81990341       0.24899028 </v>
   <v>       0.70336878       0.03304224       0.77189150 </v>
   <v>       0.60140585       0.27835805       0.61539028 </v>
   <v>       0.88078244       0.87017854       0.03536632 </v>
   <v>       0.29048293       0.60730049       0.33813603 </v>
   <v>       0.28368293       0.46926732       0.88482591 </v>
   <v>       0.09520098       0.43235122       0.97982186 </v>
   <v>       0.19750146       0.71374146       0.48787692 </v>
   <v>       0.98685854       0.62113268       0.45446559 </v>
   <v>       0.36841463       0.10564878       0.80551822 </v>
   <v>       0.38367512       0.88768488       0.21965587 </v>
   <v>       0.43451512       0.91220195       0.82858300 </v>
   <v>       0.19841463       0.90678634       0.48083077 </v>
   <v>       0.85982732       0.73686634       0.54551498 </v>
   <v>       0.02565434       0.19546244       0.59162105 </v>
   <v>       0.49762732       0.61615512       0.33619352 </v>
   <v>       0.39590439       0.61684683       0.94944130 </v>
   <v>       0.17859317       0.38844976       0.13715223 </v>
   <v>       0.18193561       0.55632488       0.74804534 </v>
   <v>       0.77474634       0.37432098       0.07997190 </v>
   <v>       0.77016390       0.56684000       0.81661538 </v>
   <v>       0.07782771       0.24354146       0.90259109 </v>
   <v>       0.94977171       0.65192390       0.29098785 </v>
   <v>       0.08878771       0.21442927       0.18794170 </v>
   <v>       0.78458244       0.04696917       0.95354656 </v>
   <v>       0.83698439       0.12258634       0.61175628 </v>
   <v>       0.48357463       0.17725171       0.46354575 </v>
   <v>       0.68874537       0.72297951       0.08758462 </v>
   <v>       0.80210634       0.40013366       0.73718462 </v>
   <v>       0.45715707       0.18511220       0.14092470 </v>
   <v>       0.53658732       0.22124780       0.80562591 </v>
   <v>       0.54787512       0.85303024       0.68973765 </v>
   <v>       0.41221366       0.00818782       0.07974057 </v>
   <v>       0.24297951       0.42991610       0.41217814 </v>
   <v>       0.52463122       0.49636976       0.60939109 </v>
   <v>       0.79360000       0.34266829       0.37626154 </v>
   <v>       0.07849707       0.89975707       0.75999919 </v>
   <v>       0.74652293       0.02250556       0.28761862 </v>
   <v>       0.06993366       0.75744195       0.02782745 </v>
  </varray>
 </structure>
 <calculation>
  <scstep>
   <time name="diag">    0.25    0.26</time>
   <time name="diis">    0.35    0.35</time>
   <time name="orth">    0.02    0.02</time>
   <time name="total">    0.72    0.76</time>
   <energy>
    <i name="alphaZ">    256.70245505 </i>
    <i name="ewald">  -9917.49092602 </i>
    <i name="hartreedc">  -3348.92167946 </i>
    <i name="XCdc">    791.82649936 </i>
    <i name="pawpsdc">  10155.13001117 </i>
    <i name="pawaedc"> -10497.29644279 </i>
    <i name="eentropy">     -0.00265374 </i>
    <i name="bandstr">  -4505.95624156 </i>
    <i name="atom">  15932.49537490 </i>
    <i name="e_fr_energy">  -1133.51360309 </i>
    <i name="e_wo_entrp">  -1133.51094934 </i>
    <i name="e_0_energy">  -1133.51227621 </i>
   </energy>
  </scstep>
  <scstep>
   <time name="diag">    0.19    0.19</time>
   <time name="diis">    0.33    0.33</time>
   <time name="orth">    0.02    0.02</time>
   <time name="total">    0.55    0.55</time>
   <energy>
    <i name="e_fr_energy">    742.67283277 </i>
    <i name="e_wo_entrp">    742.67283351 </i>
    <i name="e_0_energy">    742.67283314 </i>
   </energy>
  </scstep>
  <scstep>
   <time name="diag">    0.19    0.19</time>
   <time name="diis">    0.33    0.33</time>
   <time name="orth">    0.02    0.02</time>
   <time name="total">    0.54    0.54</time>
   <energy>
    <i name="e_fr_energy">    239.28966222 </i>
    <i name="e_wo_entrp">    239.34410810 </i>
    <i name="e_0_energy">    239.31688516 </i>
   </energy>
  </scstep>
  <scstep>
   <time name="diag">    0.18    0.18</time>
   <time name="diis">    0.33    0.33</time>
   <time name="orth">    0.02    0.02</time>
   <time name="total">    0.54    0.54</time>
   <energy>
    <i name="e_fr_energy">    -17.44421776 </i>
    <i name="e_wo_entrp">    -17.38372000 </i>
    <i name="e_0_energy">    -17.41396888 </i>
   </energy>
  </scstep>
  <scstep>
   <time name="diag">    0.18    0.18</time>
   <time name="diis">    0.33    0.33</time>
   <time name="orth">    0.02    0.02</time>
   <time name="total">    0.54    0.54</time>
   <energy>
    <i name="e_fr_energy">   -129.40489391 </i>
    <i name="e_wo_entrp">   -129.40489391 </i>
    <i name="e_0_energy">   -129.40489391 </i>
   </energy>
  </scstep>
  <scstep>
   <time name="diag">    0.18    0.18</time>
   <time name="diis">    0.33    0.33</time>
   <time name="orth">    0.02    0.02</time>
   <time name="total">    0.54    0.53</time>
   <energy>
    <i name="e_fr_energy">   -175.25782625 </i>
    <i name="e_wo_entrp">   -175.25782625 </i>
    <i name="e_0_energy">   -175.25782625 </i>
   </energy>
  </scstep>
  <scstep>
   <time name="diag">    0.18    0.18</time>
   <time name="diis">    0.33    0.33</time>
   <time name="orth">    0.02    0.02</time>
   <time name="total">    0.54    0.53</time>
   <energy>
    <i name="e_fr_energy">   -197.27703928 </i>
    <i name="e_wo_entrp">   -197.27703928 </i>
    <i name="e_0_energy">   -197.27703928 </i>
   </energy>
  </scstep>
  <scstep>
   <time name="diag">    0.18    0.18</time>
   <time name="diis">    0.33    0.33</time>
   <time name="orth">    0.02    0.02</time>
   <time name="total">    0.54    0.54</time>
   <energy>
    <i name="e_fr_energy">   -210.20628324 </i>
    <i name="e_wo_entrp">   -210.20628324 </i>
    <i name="e_0_energy">   -210.20628324 </i>
   </energy>
  </scstep>
  <scstep>
   <time name="diag">    0.18    0.18</time>
   <time name="diis">    1.16    1.16</time>
   <time name="orth">    0.03    0.03</time>
   <time name="total">    1.37    1.37</time>
   <energy>
    <i name="e_fr_energy">   -244.49119805 </i>
    <i name="e_wo_entrp">   -244.49119805 </i>
    <i name="e_0_energy">   -244.49119805 </i>
   </energy>
  </scstep>
  <scstep>
   <time name="diag">    0.19    0.19</time>
   <time name="diis">    1.17    1.17</time>
   <time name="orth">    0.03    0.03</time>
   <time name="total">    1.38    1.38</time>
   <energy>
    <i name="e_fr_energy">   -261.87653536 </i>
    <i name="e_wo_entrp">   -261.87653536 </i>
    <i name="e_0_energy">   -261.87653536 </i>
   </energy>
  </scstep>
  <scstep>
   <time name="diag">    0.19    0.19</time>
   <time name="diis">    1.22    1.22</time>
   <time name="orth">    0.03    0.03</time>
   <time name="total">    1.44    1.44</time>
   <energy>
    <i name="e_fr_energy">   -265.86266102 </i>
    <i name="e_wo_entrp">   -265.86266102 </i>
    <i name="e_0_energy">   -265.86266102 </i>
   </energy>
  </scstep>
  <scstep>
   <time name="diag">    0.20    0.20</time>
   <time name="diis">    1.11    1.11</time>
   <time name="orth">    0.03    0.03</time>
   <time name="total">    1.39    1.40</time>
   <energy>
    <i name="e_fr_energy">   -268.02567084 </i>
    <i name="e_wo_entrp">   -268.02567084 </i>
    <i name="e_0_energy">   -268.02567084 </i>
   </energy>
  </scstep>
  <scstep>
   <time name="diag">    0.18    0.18</time>
   <time name="diis">    0.86    0.86</time>
   <time name="orth">    0.03    0.03</time>
   <time name="total">    1.20    1.20</time>
   <energy>
    <i name="e_fr_energy">   -259.35532637 </i>
    <i name="e_wo_entrp">   -259.35532637 </i>
    <i name="e_0_energy">   -259.35532637 </i>
   </energy>
  </scstep>
  <scstep>
   <time name="diag">    0.18    0.18</time>
   <time name="diis">    0.88    0.90</time>
   <time name="orth">    0.03    0.03</time>
   <time name="total">    1.22    1.24</time>
   <energy>
    <i name="e_fr_energy">   -258.35602729 </i>
    <i name="e_wo_entrp">   -258.35602729 </i>
    <i name="e_0_energy">   -258.35602729 </i>
   </energy>
  </scstep>
  <scstep>
   <time name="diag">    0.18    0.18</time>
   <time name="diis">    1.03    1.03</time>
   <time name="orth">    0.03    0.03</time>
   <time name="total">    1.37    1.37</time>
   <energy>
    <i name="e_fr_energy">   -258.47626002 </i>
    <i name="e_wo_entrp">   -258.47626002 </i>
    <i name="e_0_energy">   -258.47626002 </i>
   </energy>
  </scstep>
  <scstep>
   <time name="diag">    0.18    0.18</time>
   <time name="diis">    1.11    1.10</time>
   <time name="orth">    0.03    0.03</time>
   <time name="total">    1.44    1.44</time>
   <energy>
    <i name="e_fr_energy">   -258.59851667 </i>
    <i name="e_wo_entrp">   -258.59851667 </i>
    <i name="e_0_energy">   -258.59851667 </i>
   </energy>
  </scstep>
  <scstep>
   <time name="diag">    0.18    0.18</time>
   <time name="diis">    1.07    1.06</time>
   <time name="orth">    0.03    0.03</time>
   <time name="total">    1.42    1.42</time>
   <energy>
    <i name="e_fr_energy">   -258.68646549 </i>
    <i name="e_wo_entrp">   -258.68646549 </i>
    <i name="e_0_energy">   -258.68646549 </i>
   </energy>
  </scstep>
  <scstep>
   <time name="diag">    0.19    0.19</time>
   <time name="diis">    1.09    1.09</time>
   <time name="orth">    0.03    0.03</time>
   <time name="total">    1.46    1.46</time>
   <energy>
    <i name="e_fr_energy">   -258.73887885 </i>
    <i name="e_wo_entrp">   -258.73887885 </i>
    <i name="e_0_energy">   -258.73887885 </i>
   </energy>
  </scstep>
  <scstep>
   <time name="diag">    0.20    0.20</time>
   <time name="diis">    1.09    1.09</time>
   <time name="orth">    0.04    0.04</time>
   <time name="total">    1.47    1.47</time>
   <energy>
    <i name="e_fr_energy">   -258.77489422 </i>
    <i name="e_wo_entrp">   -258.77489422 </i>
    <i name="e_0_energy">   -258.77489422 </i>
   </energy>
  </scstep>
  <scstep>
   <time name="diag">    0.18    0.18</time>
   <time name="diis">    1.10    1.10</time>
   <time name="orth">    0.04    0.04</time>
   <time name="total">    1.45    1.44</time>
   <energy>
    <i name="e_fr_energy">   -258.79076019 </i>
    <i name="e_wo_entrp">   -258.79076019 </i>
    <i name="e_0_energy">   -258.79076019 </i>
   </energy>
  </scstep>
  <scstep>
   <time name="diag">    0.18    0.18</time>
   <time name="diis">    1.05    1.05</time>
   <time name="orth">    0.04    0.04</time>
   <time name="total">    1.41    1.41</time>
   <energy>
    <i name="e_fr_energy">   -258.80070806 </i>
    <i name="e_wo_entrp">   -258.80070806 </i>
    <i name="e_0_energy">   -258.80070806 </i>
   </energy>
  </scstep>
  <scstep>
   <time name="diag">    0.18    0.18</time>
   <time name="diis">    1.07    1.07</time>
   <time name="orth">    0.04    0.04</time>
   <time name="total">    1.42    1.42</time>
   <energy>
    <i name="e_fr_energy">   -258.80564111 </i>
    <i name="e_wo_entrp">   -258.80564111 </i>
    <i name="e_0_energy">   -258.80564111 </i>
   </energy>
  </scstep>
  <scstep>
   <time name="diag">    0.18    0.18</time>
   <time name="diis">    1.04    1.04</time>
   <time name="orth">    0.04    0.04</time>
   <time name="total">    1.39    1.39</time>
   <energy>
    <i name="e_fr_energy">   -258.80873157 </i>
    <i name="e_wo_entrp">   -258.80873157 </i>
    <i name="e_0_energy">   -258.80873157 </i>
   </energy>
  </scstep>
  <scstep>
   <time name="diag">    0.18    0.18</time>
   <time name="diis">    1.12    1.12</time>
   <time name="orth">    0.03    0.03</time>
   <time name="total">    1.46    1.46</time>
   <energy>
    <i name="e_fr_energy">   -258.81046353 </i>
    <i name="e_wo_entrp">   -258.81046353 </i>
    <i name="e_0_energy">   -258.81046353 </i>
   </energy>
  </scstep>
  <scstep>
   <time name="diag">    0.18    0.18</time>
   <time name="diis">    1.14    1.14</time>
   <time name="orth">    0.03    0.03</time>
   <time name="total">    1.49    1.49</time>
   <energy>
    <i name="e_fr_energy">   -258.81216971 </i>
    <i name="e_wo_entrp">   -258.81216971 </i>
    <i name="e_0_energy">   -258.81216971 </i>
   </energy>
  </scstep>
  <scstep>
   <time name="diag">    0.21    0.21</time>
   <time name="diis">    0.94    0.94</time>
   <time name="orth">    0.03    0.03</time>
   <time name="total">    1.32    1.32</time>
   <energy>
    <i name="e_fr_energy">   -258.81371126 </i>
    <i name="e_wo_entrp">   -258.81371126 </i>
    <i name="e_0_energy">   -258.81371126 </i>
   </energy>
  </scstep>
  <scstep>
   <time name="diag">    0.18    0.18</time>
   <time name="diis">    1.11    1.11</time>
   <time name="orth">    0.03    0.03</time>
   <time name="total">    1.45    1.45</time>
   <energy>
    <i name="e_fr_energy">   -258.81430257 </i>
    <i name="e_wo_entrp">   -258.81430257 </i>
    <i name="e_0_energy">   -258.81430257 </i>
   </energy>
  </scstep>
  <scstep>
   <time name="diag">    0.18    0.18</time>
   <time name="diis">    1.05    1.05</time>
   <time name="orth">    0.03    0.03</time>
   <time name="total">    1.39    1.39</time>
   <energy>
    <i name="e_fr_energy">   -258.81466702 </i>
    <i name="e_wo_entrp">   -258.81466702 </i>
    <i name="e_0_energy">   -258.81466702 </i>
   </energy>
  </scstep>
  <scstep>
   <time name="diag">    0.18    0.18</time>
   <time name="diis">    1.05    1.05</time>
   <time name="orth">    0.03    0.03</time>
   <time name="total">    1.39    1.39</time>
   <energy>
    <i name="e_fr_energy">   -258.81496319 </i>
    <i name="e_wo_entrp">   -258.81496319 </i>
    <i name="e_0_energy">   -258.81496319 </i>
   </energy>
  </scstep>
  <scstep>
   <time name="diag">    0.18    0.18</time>
   <time name="diis">    1.01    1.02</time>
   <time name="orth">    0.03    0.03</time>
   <time name="total">    1.35    1.36</time>
   <energy>
    <i name="e_fr_energy">   -258.81516072 </i>
    <i name="e_wo_entrp">   -258.81516072 </i>
    <i name="e_0_energy">   -258.81516072 </i>
   </energy>
  </scstep>
  <scstep>
   <time name="diag">    0.18    0.18</time>
   <time name="diis">    0.99    0.99</time>
   <time name="orth">    0.03    0.03</time>
   <time name="total">    1.33    1.33</time>
   <energy>
    <i name="e_fr_energy">   -258.81527215 </i>
    <i name="e_wo_entrp">   -258.81527215 </i>
    <i name="e_0_energy">   -258.81527215 </i>
   </energy>
  </scstep>
  <scstep>
   <time name="diag">    0.18    0.18</time>
   <time name="diis">    1.04    1.04</time>
   <time name="orth">    0.03    0.03</time>
   <time name="total">    1.39    1.39</time>
   <energy>
    <i name="e_fr_energy">   -258.81534689 </i>
    <i name="e_wo_entrp">   -258.81534689 </i>
    <i name="e_0_energy">   -258.81534689 </i>
   </energy>
  </scstep>
  <scstep>
   <time name="diag">    0.20    0.20</time>
   <time name="diis">    1.09    1.09</time>
   <time name="orth">    0.02    0.02</time>
   <time name="total">    1.45    1.45</time>
   <energy>
    <i name="e_fr_energy">   -258.81540526 </i>
    <i name="e_wo_entrp">   -258.81540526 </i>
    <i name="e_0_energy">   -258.81540526 </i>
   </energy>
  </scstep>
  <scstep>
   <time name="diag">    0.18    0.18</time>
   <time name="diis">    0.98    0.98</time>
   <time name="orth">    0.02    0.02</time>
   <time name="total">    1.32    1.32</time>
   <energy>
    <i name="e_fr_energy">   -258.81543280 </i>
    <i name="e_wo_entrp">   -258.81543280 </i>
    <i name="e_0_energy">   -258.81543280 </i>
   </energy>
  </scstep>
  <scstep>
   <time name="diag">    0.18    0.18</time>
   <time name="diis">    0.96    0.96</time>
   <time name="orth">    0.02    0.02</time>
   <time name="total">    1.29    1.29</time>
   <energy>
    <i name="e_fr_energy">   -258.81546495 </i>
    <i name="e_wo_entrp">   -258.81546495 </i>
    <i name="e_0_energy">   -258.81546495 </i>
   </energy>
  </scstep>
  <scstep>
   <time name="diag">    0.18    0.18</time>
   <time name="diis">    0.96    0.97</time>
   <time name="orth">    0.02    0.02</time>
   <time name="total">    1.30    1.31</time>
   <energy>
    <i name="e_fr_energy">   -258.81549451 </i>
    <i name="e_wo_entrp">   -258.81549451 </i>
    <i name="e_0_energy">   -258.81549451 </i>
   </energy>
  </scstep>
  <scstep>
   <time name="diag">    0.18    0.18</time>
   <time name="diis">    0.93    0.93</time>
   <time name="orth">    0.02    0.02</time>
   <time name="total">    1.27    1.27</time>
   <energy>
    <i name="e_fr_energy">   -258.81550662 </i>
    <i name="e_wo_entrp">   -258.81550662 </i>
    <i name="e_0_energy">   -258.81550662 </i>
   </energy>
  </scstep>
  <scstep>
   <time name="diag">    0.18    0.18</time>
   <time name="diis">    0.86    0.86</time>
   <time name="orth">    0.03    0.03</time>
   <time name="total">    1.20    1.20</time>
   <energy>
    <i name="e_fr_energy">   -258.81551668 </i>
    <i name="e_wo_entrp">   -258.81551668 </i>
    <i name="e_0_energy">   -258.81551668 </i>
   </energy>
  </scstep>
  <scstep>
   <time name="diag">    0.18    0.18</time>
   <time name="diis">    0.83    0.83</time>
   <time name="orth">    0.03    0.03</time>
   <time name="total">    1.18    1.18</time>
   <energy>
    <i name="e_fr_energy">   -258.81552387 </i>
    <i name="e_wo_entrp">   -258.81552387 </i>
    <i name="e_0_energy">   -258.81552387 </i>
   </energy>
  </scstep>
  <scstep>
   <time name="diag">    0.19    0.19</time>
   <time name="diis">    0.91    0.91</time>
   <time name="orth">    0.03    0.03</time>
   <time name="total">    1.28    1.28</time>
   <energy>
    <i name="e_fr_energy">   -258.81552862 </i>
    <i name="e_wo_entrp">   -258.81552862 </i>
    <i name="e_0_energy">   -258.81552862 </i>
   </energy>
  </scstep>
  <scstep>
   <time name="diag">    0.20    0.20</time>
   <time name="diis">    0.77    0.77</time>
   <time name="orth">    0.03    0.03</time>
   <time name="total">    1.15    1.15</time>
   <energy>
    <i name="e_fr_energy">   -258.81553079 </i>
    <i name="e_wo_entrp">   -258.81553079 </i>
    <i name="e_0_energy">   -258.81553079 </i>
   </energy>
  </scstep>
  <scstep>
   <time name="diag">    0.20    0.20</time>
   <time name="diis">    0.70    0.70</time>
   <time name="orth">    0.03    0.03</time>
   <time name="total">    1.09    1.09</time>
   <energy>
    <i name="e_fr_energy">   -258.81553249 </i>
    <i name="e_wo_entrp">   -258.81553249 </i>
    <i name="e_0_energy">   -258.81553249 </i>
   </energy>
  </scstep>
  <scstep>
   <time name="diag">    0.20    0.20</time>
   <time name="diis">    0.81    0.81</time>
   <time name="orth">    0.03    0.03</time>
   <time name="total">    1.18    1.18</time>
   <energy>
    <i name="e_fr_energy">   -258.81553407 </i>
    <i name="e_wo_entrp">   -258.81553407 </i>
    <i name="e_0_energy">   -258.81553407 </i>
   </energy>
  </scstep>
  <scstep>
   <time name="diag">    0.18    0.18</time>
   <time name="diis">    0.64    0.64</time>
   <time name="orth">    0.03    0.03</time>
   <time name="total">    0.99    0.99</time>
   <energy>
    <i name="e_fr_energy">   -258.81553474 </i>
    <i name="e_wo_entrp">   -258.81553474 </i>
    <i name="e_0_energy">   -258.81553474 </i>
   </energy>
  </scstep>
  <scstep>
   <time name="diag">    0.18    0.18</time>
   <time name="diis">    0.71    0.71</time>
   <time name="orth">    0.03    0.03</time>
   <time name="total">    1.00    1.00</time>
   <energy>
    <i name="alphaZ">    256.70245505 </i>
    <i name="ewald">  -9917.49092602 </i>
    <i name="hartreedc">  -3527.01158256 </i>
    <i name="XCdc">    805.95334203 </i>
    <i name="pawpsdc">  22971.97658748 </i>
    <i name="pawaedc"> -23328.92286859 </i>
    <i name="eentropy">     -0.00000000 </i>
    <i name="bandstr">  -3452.51791738 </i>
    <i name="atom">  15932.49537490 </i>
    <i name="e_fr_energy">   -258.81553508 </i>
    <i name="e_wo_entrp">   -258.81553508 </i>
    <i name="e_0_energy">   -258.81553508 </i>
   </energy>
  </scstep>
  <structure>
   <crystal>
    <varray name="basis" >
     <v>      10.25000000       0.00000000       0.00000000 </v>
     <v>       0.00000000      10.25000000       0.00000000 </v>
     <v>       0.00000000       0.00000000      12.35000000 </v>
    </varray>
    <i name="volume">   1297.52187500 </i>
    <varray name="rec_basis" >
     <v>       0.09756098       0.00000000       0.00000000 </v>
     <v>       0.00000000       0.09756098       0.00000000 </v>
     <v>       0.00000000       0.00000000       0.08097166 </v>
    </varray>
   </crystal>
   <varray name="positions" >
    <v>       0.62706244       0.89483707       0.00474717 </v>
    <v>       0.73201463       0.56912390       0.61189879 </v>
    <v>       0.22994439       0.17443415       0.02899466 </v>
    <v>       0.15400488       0.72559220       0.20580810 </v>
    <v>       0.29852683       0.20733951       0.32385344 </v>
    <v>       0.20027805       0.04847776       0.66294413 </v>
    <v>       0.73469854       0.55929951       0.21449069 </v>
    <v>       0.51114439       0.07256937       0.30170121 </v>
    <v>       0.98372683       0.93255902       0.58117247 </v>
    <v>       0.93840293       0.40242244       0.22742105 </v>
    <v>       0.43197171       0.96690634       0.52628664 </v>
    <v>       0.89188195       0.58840098       0.00802815 </v>
    <v>       0.01373132       0.36385951       0.73409150 </v>
    <v>       0.29651805       0.52304976       0.59932794 </v>
    <v>       0.61672488       0.23012000       0.98663158 </v>
    <v>       0.85278829       0.18470244       0.82690688 </v>
    <v>       0.62338829       0.53950244       0.98894737 </v>
    <v>       0.46277268       0.40461171       0.43203482 </v>
    <v>       0.47590537       0.66028098       0.14805344 </v>
    <v>       0.20749756       0.74940976       0.86628340 </v>
    <v>       0.69824683       0.24020780       0.21839028 </v>
    <v>       0.96934244       0.69773171       0.73138462 </v>
    <v>       0.01840449       0.37098634       0.45503725 </v>
    <v>       0.90828195       0.20773366       0.04071401 </v>
    <v>       0.71867122       0.13444780       0.44928745 </v>
    <v>       0.54258537       0.63273854       0.77496680 </v>
    <v>       0.62416878       0.81990341       0.24899028 </v>
    <v>       0.70336878       0.03304224       0.77189150 </v>
    <v>       0.60140585       0.27835805       0.61539028 </v>
    <v>       0.88078244       0.87017854       0.03536632 </v>
    <v>       0.29048293       0.60730049       0.33813603 </v>
    <v>       0.28368293       0.46926732       0.88482591 </v>
    <v>       0.09520098       0.43235122       0.97982186 </v>
    <v>       0.19750146       0.71374146       0.48787692 </v>
    <v>       0.98685854       0.62113268       0.45446559 </v>
    <v>       0.36841463       0.10564878       0.80551822 </v>
    <v>       0.38367512       0.88768488       0.21965587 </v>
    <v>       0.43451512       0.91220195       0.82858300 </v>
    <v>       0.19841463       0.90678634       0.48083077 </v>
    <v>       0.85982732       0.73686634       0.54551498 </v>
    <v>       0.02565434       0.19546244       0.59162105 </v>
    <v>       0.49762732       0.61615512       0.33619352 </v>
    <v>       0.39590439       0.61684683       0.94944130 </v>
    <v>       0.17859317       0.38844976       0.13715223 </v>
    <v>       0.18193561       0.55632488       0.74804534 </v>
    <v>       0.77474634       0.37432098       0.07997190 </v>
    <v>       0.77016390       0.56684000       0.81661538 </v>
    <v>       0.07782771       0.24354146       0.90259109 </v>
    <v>       0.94977171       0.65192390       0.29098785 </v>
    <v>       0.08878771       0.21442927       0.18794170 </v>
    <v>       0.78458244       0.04696917       0.95354656 </v>
    <v>       0.83698439       0.12258634       0.61175628 </v>
    <v>       0.48357463       0.17725171       0.46354575 </v>
    <v>       0.68874537       0.72297951       0.08758462 </v>
    <v>       0.80210634       0.40013366       0.73718462 </v>
    <v>       0.45715707       0.18511220       0.14092470 </v>
    <v>       0.53658732       0.22124780       0.80562591 </v>
    <v>       0.54787512       0.85303024       0.68973765 </v>
    <v>       0.41221366       0.00818782       0.07974057 </v>
    <v>       0.24297951       0.42991610       0.41217814 </v>
    <v>       0.52463122       0.49636976       0.60939109 </v>
    <v>       0.79360000       0.34266829       0.37626154 </v>
    <v>       0.07849707       0.89975707       0.75999919 </v>
    <v>       0.74652293       0.02250556       0.28761862 </v>
    <v>       0.06993366       0.75744195       0.02782745 </v>
   </varray>
  </structure>
  <varray name="forces" >
   <v>      -0.58946860       0.97218533      -0.56422938 </v>
   <v>       0.22521540      -0.12800099       0.09902101 </v>
   <v>       0.31265709      -0.20169258       0.22983444 </v>
   <v>      -0.17062964       0.19212816      -0.12169701 </v>
   <v>      -0.21600226       0.12681875      -0.02668579 </v>
   <v>      -0.14589143       0.01713759      -0.09055843 </v>
   <v>       0.13430323      -0.18967614       0.07389833 </v>
   <v>       0.35117151      -0.41819951      -0.04086798 </v>
   <v>      -0.12489446       0.14412608      -0.06741961 </v>
   <v>       0.07388132      -0.01659362      -0.09476515 </v>
   <v>      -0.05209028      -0.16646866       0.16373283 </v>
   <v>      -0.20564068      -0.28524759      -0.09830707 </v>
   <v>       0.93431852       0.00484847      -0.11659747 </v>
   <v>       0.29339693       0.05741413      -0.51207020 </v>
   <v>       0.36126650      -0.27077269       0.17904786 </v>
   <v>       0.56840527       0.68271663      -0.26995775 </v>
   <v>       0.32337042      -0.27284135      -0.25429969 </v>
   <v>       0.55923253      -0.00578390       0.08980475 </v>
   <v>      -0.42556388       0.23193078      -0.17939947 </v>
   <v>       0.13679523       0.21433684      -0.02059142 </v>
   <v>       0.10334063      -0.16314546       0.03743606 </v>
   <v>      -0.20432142      -0.10572977      -0.06731634 </v>
   <v>      -0.33714581      -0.03269528       0.22126482 </v>
   <v>       0.27147170      -0.37685605       0.02070251 </v>
   <v>       0.08004875       0.07068462      -0.24186337 </v>
   <v>      -0.04342139      -0.00915720      -0.06070588 </v>
   <v>       0.07207060       0.33123947       0.27247343 </v>
   <v>      -0.52825391      -0.58382281      -0.12941041 </v>
   <v>       0.05755687      -0.03426155       0.38755812 </v>
   <v>      -0.12988104       0.11656762       0.15109592 </v>
   <v>      -0.35081282       0.63392608      -0.25027290 </v>
   <v>      -0.38109535      -1.12635375      -0.47571358 </v>
   <v>      -0.20428823      -0.43822479      -0.69201912 </v>
   <v>      -0.04051004      -2.12056372       0.35135205 </v>
   <v>       0.81518215      -0.19613978       0.24018406 </v>
   <v>       0.70961484      -0.28462147       0.24871557 </v>
   <v>       0.19444798       0.11766346      -0.47796572 </v>
   <v>       0.21730503       0.02235898      -0.73295533 </v>
   <v>       0.11015692       1.78924580      -0.33094450 </v>
   <v>       0.25145722       0.30020468       0.06149697 </v>
   <v>       0.53936610       0.38682023      -0.05080293 </v>
   <v>       0.03507191      -0.19572211       0.34714359 </v>
   <v>       0.41885386       0.73448303       0.39433011 </v>
   <v>      -0.05370092      -0.07978651       0.00297026 </v>
   <v>      -0.42996732      -0.08276286       0.84228567 </v>
   <v>      -0.46240400       1.00163710       0.28648751 </v>
   <v>      -0.25200025       1.96260912       1.10738969 </v>
   <v>      -0.11958965       0.87205098       0.15676456 </v>
   <v>      -0.23927224       0.00673393      -0.60032259 </v>
   <v>       0.20454035       0.12078212       0.22634156 </v>
   <v>      -0.36598641      -0.37048096       0.07848602 </v>
   <v>      -0.46154316      -0.33657130       0.47181782 </v>
   <v>      -0.08760623      -0.24382521       0.00273685 </v>
   <v>       0.48797736      -0.60265092       0.25900626 </v>
   <v>      -0.35752336      -1.63076354      -0.86344081 </v>
   <v>       0.21268338       1.23360345       0.25031674 </v>
   <v>      -0.32247925      -0.04965296      -0.64644738 </v>
   <v>      -0.40723404       0.52752141       0.60886983 </v>
   <v>      -0.32876022      -1.29487819       0.14487379 </v>
   <v>      -0.08716409      -0.50411048       0.11909818 </v>
   <v>      -0.48398379       0.11871817      -0.01849307 </v>
   <v>       0.08879077       0.20080256      -0.03167653 </v>
   <v>      -0.19427313      -0.07434851       0.13582056 </v>
   <v>      -0.41688142      -0.21676977      -0.14112951 </v>
   <v>       0.07633034      -0.08212363       0.00656865 </v>
  </varray>
  <varray name="stress" >
   <v>      -2.46923010      -6.03204337       0.00082188 </v>
   <v>      -6.03204337      17.65678486      -1.87234315 </v>
   <v>       0.00082191      -1.87234320       5.72295994 </v>
  </varray>
  <energy>
   <i name="e_fr_energy">   -258.81553508 </i>
   <i name="e_wo_entrp">   -258.81553508 </i>
   <i name="e_0_energy">     -0.00000000 </i>
  </energy>
  <time name="totalsc">   55.68   55.75</time>
  <eigenvalues>
   <array>
    <dimension dim="1">band</dimension>
    <dimension dim="2">kpoint</dimension>
    <dimension dim="3">spin</dimension>
    <field>eigene</field>
    <field>occ</field>
    <set>
     <set comment="spin 1">
      <set comment="kpoint 1">
       <r>  -44.1671    1.0000 </r>
       <r>  -43.7840    1.0000 </r>
       <r>  -43.7368    1.0000 </r>
       <r>  -43.6895    1.0000 </r>
       <r>  -43.6768    1.0000 </r>
       <r>  -43.6598    1.0000 </r>
       <r>  -43.6492    1.0000 </r>
       <r>  -43.6335    1.0000 </r>
       <r>  -43.5551    1.0000 </r>
       <r>  -43.5537    1.0000 </r>
       <r>  -43.5329    1.0000 </r>
       <r>  -43.5107    1.0000 </r>
       <r>  -43.4757    1.0000 </r>
       <r>  -43.4418    1.0000 </r>
       <r>  -43.3749    1.0000 </r>
       <r>  -43.3605    1.0000 </r>
       <r>  -43.3110    1.0000 </r>
       <r>  -43.2904    1.0000 </r>
       <r>  -43.2844    1.0000 </r>
       <r>  -43.2629    1.0000 </r>
       <r>  -43.2546    1.0000 </r>
       <r>  -43.2490    1.0000 </r>
       <r>  -43.2381    1.0000 </r>
       <r>  -43.1870    1.0000 </r>
       <r>  -43.1859    1.0000 </r>
       <r>  -43.0246    1.0000 </r>
       <r>  -42.9305    1.0000 </r>
       <r>  -42.8656    1.0000 </r>
       <r>  -42.8489    1.0000 </r>
       <r>  -42.5380    1.0000 </r>
       <r>  -13.8684    1.0000 </r>
       <r>  -13.7254    1.0000 </r>
       <r>  -13.3583    1.0000 </r>
       <r>  -13.2713    1.0000 </r>
       <r>  -13.1475    1.0000 </r>
       <r>  -12.8713    1.0000 </r>
       <r>  -12.8194    1.0000 </r>
       <r>  -12.6891    1.0000 </r>
       <r>  -12.4749    1.0000 </r>
       <r>  -12.4276    1.0000 </r>
       <r>  -12.1622    1.0000 </r>
       <r>  -12.0197    1.0000 </r>
       <r>  -11.7785    1.0000 </r>
       <r>  -11.7597    1.0000 </r>
       <r>  -11.3339    1.0000 </r>
       <r>  -11.1285    1.0000 </r>
       <r>  -10.7137    1.0000 </r>
       <r>  -10.4495    1.0000 </r>
       <r>  -10.3576    1.0000 </r>
       <r>  -10.0365    1.0000 </r>
       <r>   -9.6029    1.0000 </r>
       <r>   -9.4336    1.0000 </r>
       <r>   -9.3934    1.0000 </r>
       <r>   -9.0831    1.0000 </r>
       <r>   -9.0023    1.0000 </r>
       <r>   -8.7327    1.0000 </r>
       <r>   -8.1740    1.0000 </r>
       <r>   -8.1431    1.0000 </r>
       <r>   -7.9454    1.0000 </r>
       <r>   -7.7810    1.0000 </r>
       <r>   -7.7231    1.0000 </r>
       <r>   -7.4683    1.0000 </r>
       <r>   -6.5666    1.0000 </r>
       <r>   -5.9513    1.0000 </r>
       <r>   -5.3632    1.0000 </r>
       <r>   -3.7504    1.0000 </r>
       <r>   -3.5630    1.0000 </r>
       <r>   -3.4840    1.0000 </r>
       <r>   -3.2932    1.0000 </r>
       <r>   -3.0937    1.0000 </r>
       <r>   -3.0327    1.0000 </r>
       <r>   -3.0126    1.0000 </r>
       <r>   -2.8902    1.0000 </r>
       <r>   -2.6970    1.0000 </r>
       <r>   -2.6288    1.0000 </r>
       <r>   -2.5710    1.0000 </r>
       <r>   -2.5340    1.0000 </r>
       <r>   -2.5288    1.0000 </r>
       <r>   -2.4060    1.0000 </r>
       <r>   -2.3684    1.0000 </r>
       <r>   -2.2549    1.0000 </r>
       <r>   -2.2463    1.0000 </r>
       <r>   -2.1462    1.0000 </r>
       <r>   -2.0622    1.0000 </r>
       <r>   -2.0248    1.0000 </r>
       <r>   -1.9442    1.0000 </r>
       <r>   -1.8730    1.0000 </r>
       <r>   -1.8422    1.0000 </r>
       <r>   -1.8042    1.0000 </r>
       <r>   -1.7046    1.0000 </r>
       <r>   -1.6960    1.0000 </r>
       <r>   -1.6260    1.0000 </r>
       <r>   -1.4982    1.0000 </r>
       <r>   -1.4682    1.0000 </r>
       <r>   -1.4272    1.0000 </r>
       <r>   -1.3604    1.0000 </r>
       <r>   -1.3186    1.0000 </r>
       <r>   -1.2999    1.0000 </r>
       <r>   -1.2211    1.0000 </r>
       <r>   -1.1949    1.0000 </r>
       <r>   -1.1012    1.0000 </r>
       <r>   -1.0665    1.0000 </r>
       <r>   -0.9672    1.0000 </r>
       <r>   -0.9330    1.0000 </r>
       <r>   -0.9005    1.0000 </r>
       <r>   -0.8301    1.0000 </r>
       <r>   -0.7711    1.0000 </r>
       <r>   -0.7412    1.0000 </r>
       <r>   -0.6457    1.0000 </r>
       <r>   -0.6114    1.0000 </r>
       <r>   -0.5438    1.0000 </r>
       <r>   -0.4689    1.0000 </r>
       <r>   -0.4291    1.0000 </r>
       <r>   -0.3530    1.0000 </r>
       <r>   -0.3293    1.0000 </r>
       <r>   -0.2702    1.0000 </r>
       <r>   -0.1795    1.0000 </r>
       <r>   -0.1466    1.0000 </r>
       <r>   -0.0111    1.0000 </r>
       <r>    0.0172    1.0000 </r>
       <r>    0.0664    1.0000 </r>
       <r>    0.0728    1.0000 </r>
       <r>    0.1519    1.0000 </r>
       <r>    0.1946    1.0000 </r>
       <r>    0.2452    1.0000 </r>
       <r>    0.2926    1.0000 </r>
       <r>    0.3066    1.0000 </r>
       <r>    0.3604    1.0000 </r>
       <r>    0.5098    1.0000 </r>
       <r>    0.5235    1.0000 </r>
       <r>    0.5397    1.0000 </r>
       <r>    0.6297    1.0000 </r>
       <r>    0.6408    1.0000 </r>
       <r>    0.7200    1.0000 </r>
       <r>    0.7954    1.0000 </r>
       <r>    0.8228    1.0000 </r>
       <r>    0.8886    1.0000 </r>
       <r>    1.0191    1.0000 </r>
       <r>    1.0914    1.0000 </r>
       <r>    1.1227    1.0000 </r>
       <r>    1.1922    1.0000 </r>
       <r>    1.3387    1.0000 </r>
       <r>    1.3977    1.0000 </r>
       <r>    1.4138    1.0000 </r>
       <r>    1.5146    1.0000 </r>
       <r>    1.6234    1.0000 </r>
       <r>    1.7668    1.0000 </r>
       <r>    1.8188    1.0000 </r>
       <r>    1.8693    1.0000 </r>
       <r>    1.9911    1.0000 </r>
       <r>    3.7305    0.0000 </r>
       <r>    3.8632    0.0000 </r>
       <r>    4.0560    0.0000 </r>
       <r>    4.3096    0.0000 </r>
       <r>    4.4041    0.0000 </r>
       <r>    4.4954    0.0000 </r>
       <r>    4.5975    0.0000 </r>
       <r>    4.7226    0.0000 </r>
       <r>    4.8296    0.0000 </r>
       <r>    4.9122    0.0000 </r>
       <r>    5.0295    0.0000 </r>
       <r>    5.1340    0.0000 </r>
       <r>    5.3231    0.0000 </r>
       <r>    5.3992    0.0000 </r>
       <r>    5.4563    0.0000 </r>
       <r>    5.5607    0.0000 </r>
       <r>    5.6305    0.0000 </r>
       <r>    5.8392    0.0000 </r>
       <r>    6.0355    0.0000 </r>
       <r>    6.1064    0.0000 </r>
       <r>    6.2897    0.0000 </r>
       <r>    6.3501    0.0000 </r>
       <r>    6.4570    0.0000 </r>
       <r>    6.4974    0.0000 </r>
       <r>    6.5836    0.0000 </r>
       <r>    6.6324    0.0000 </r>
       <r>    6.7909    0.0000 </r>
       <r>    6.8723    0.0000 </r>
       <r>    6.9225    0.0000 </r>
       <r>    7.0421    0.0000 </r>
       <r>    7.1217    0.0000 </r>
       <r>    7.2047    0.0000 </r>
       <r>    7.3173    0.0000 </r>
       <r>    7.4915    0.0000 </r>
      </set>
     </set>
    </set>
   </array>
  </eigenvalues>
  <separator name="orbital magnetization" >
   <v name="MAGDIPOLOUT">      0.00000000      0.00000000      0.00000000</v>
  </separator>
  <dos>
   <i name="efermi">      2.33207063 </i>
   <total>
    <array>
     <dimension dim="1">gridpoints</dimension>
     <dimension dim="2">spin</dimension>
     <field>energy</field>
     <field>total</field>
     <field>integrated</field>
     <set>
      <set comment="spin 1">
       <r>   -46.7500     0.0000     0.0000 </r>
       <r>   -46.5606     0.0000     0.0000 </r>
       <r>   -46.3712     0.0000     0.0000 </r>
       <r>   -46.1818     0.0000     0.0000 </r>
       <r>   -45.9924     0.0000     0.0000 </r>
       <r>   -45.8030     0.0000     0.0000 </r>
       <r>   -45.6135     0.0000     0.0000 </r>
       <r>   -45.4241     0.0000     0.0000 </r>
       <r>   -45.2347     0.0000     0.0000 </r>
       <r>   -45.0453     0.0000     0.0000 </r>
       <r>   -44.8559     0.0000     0.0000 </r>
       <r>   -44.6665     0.0000     0.0000 </r>
       <r>   -44.4770     0.0000     0.0000 </r>
       <r>   -44.2876     0.0034     0.0007 </r>
       <r>   -44.0982    10.2841     1.9486 </r>
       <r>   -43.9088     0.2735     2.0004 </r>
       <r>   -43.7194    21.5926     6.0904 </r>
       <r>   -43.5300    77.6898    20.8060 </r>
       <r>   -43.3406    58.1525    31.8209 </r>
       <r>   -43.1511    92.4830    49.3385 </r>
       <r>   -42.9617    15.6824    52.3090 </r>
       <r>   -42.7723    29.8413    57.9614 </r>
       <r>   -42.5829     1.2835    58.2045 </r>
       <r>   -42.3935     9.4789    60.0000 </r>
       <r>   -42.2041     0.0002    60.0000 </r>
       <r>   -42.0147     0.0000    60.0000 </r>
       <r>   -41.8252     0.0000    60.0000 </r>
       <r>   -41.6358     0.0000    60.0000 </r>
       <r>   -41.4464     0.0000    60.0000 </r>
       <r>   -41.2570     0.0000    60.0000 </r>
       <r>   -41.0676     0.0000    60.0000 </r>
       <r>   -40.8782     0.0000    60.0000 </r>
       <r>   -40.6888     0.0000    60.0000 </r>
       <r>   -40.4993     0.0000    60.0000 </r>
       <r>   -40.3099     0.0000    60.0000 </r>
       <r>   -40.1205     0.0000    60.0000 </r>
       <r>   -39.9311     0.0000    60.0000 </r>
       <r>   -39.7417     0.0000    60.0000 </r>
       <r>   -39.5523     0.0000    60.0000 </r>
       <r>   -39.3629     0.0000    60.0000 </r>
       <r>   -39.1734     0.0000    60.0000 </r>
       <r>   -38.9840     0.0000    60.0000 </r>
       <r>   -38.7946     0.0000    60.0000 </r>
       <r>   -38.6052     0.0000    60.0000 </r>
       <r>   -38.4158     0.0000    60.0000 </r>
       <r>   -38.2264     0.0000    60.0000 </r>
       <r>   -38.0369     0.0000    60.0000 </r>
       <r>   -37.8475     0.0000    60.0000 </r>
       <r>   -37.6581     0.0000    60.0000 </r>
       <r>   -37.4687     0.0000    60.0000 </r>
       <r>   -37.2793     0.0000    60.0000 </r>
       <r>   -37.0899     0.0000    60.0000 </r>
       <r>   -36.9005     0.0000    60.0000 </r>
       <r>   -36.7110     0.0000    60.0000 </r>
       <r>   -36.5216     0.0000    60.0000 </r>
       <r>   -36.3322     0.0000    60.0000 </r>
       <r>   -36.1428     0.0000    60.0000 </r>
       <r>   -35.9534     0.0000    60.0000 </r>
       <r>   -35.7640     0.0000    60.0000 </r>
       <r>   -35.5746     0.0000    60.0000 </r>
       <r>   -35.3851     0.0000    60.0000 </r>
       <r>   -35.1957     0.0000    60.0000 </r>
       <r>   -35.0063     0.0000    60.0000 </r>
       <r>   -34.8169     0.0000    60.0000 </r>
       <r>   -34.6275     0.0000    60.0000 </r>
       <r>   -34.4381     0.0000    60.0000 </r>
       <r>   -34.2487     0.0000    60.0000 </r>
       <r>   -34.0592     0.0000    60.0000 </r>
       <r>   -33.8698     0.0000    60.0000 </r>
       <r>   -33.6804     0.0000    60.0000 </r>
       <r>   -33.4910     0.0000    60.0000 </r>
       <r>   -33.3016     0.0000    60.0000 </r>
       <r>   -33.1122     0.0000    60.0000 </r>
       <r>   -32.9227     0.0000    60.0000 </r>
       <r>   -32.7333     0.0000    60.0000 </r>
       <r>   -32.5439     0.0000    60.0000 </r>
       <r>   -32.3545     0.0000    60.0000 </r>
       <r>   -32.1651     0.0000    60.0000 </r>
       <r>   -31.9757     0.0000    60.0000 </r>
       <r>   -31.7863     0.0000    60.0000 </r>
       <r>   -31.5968     0.0000    60.0000 </r>
       <r>   -31.4074     0.0000    60.0000 </r>
       <r>   -31.2180     0.0000    60.0000 </r>
       <r>   -31.0286     0.0000    60.0000 </r>
       <r>   -30.8392     0.0000    60.0000 </r>
       <r>   -30.6498     0.0000    60.0000 </r>
       <r>   -30.4604     0.0000    60.0000 </r>
       <r>   -30.2709     0.0000    60.0000 </r>
       <r>   -30.0815     0.0000    60.0000 </r>
       <r>   -29.8921     0.0000    60.0000 </r>
       <r>   -29.7027     0.0000    60.0000 </r>
       <r>   -29.5133     0.0000    60.0000 </r>
       <r>   -29.3239     0.0000    60.0000 </r>
       <r>   -29.1345     0.0000    60.0000 </r>
       <r>   -28.9450     0.0000    60.0000 </r>
       <r>   -28.7556     0.0000    60.0000 </r>
       <r>   -28.5662     0.0000    60.0000 </r>
       <r>   -28.3768     0.0000    60.0000 </r>
       <r>   -28.1874     0.0000    60.0000 </r>
       <r>   -27.9980     0.0000    60.0000 </r>
       <r>   -27.8086     0.0000    60.0000 </r>
       <r>   -27.6191     0.0000    60.0000 </r>
       <r>   -27.4297     0.0000    60.0000 </r>
       <r>   -27.2403     0.0000    60.0000 </r>
       <r>   -27.0509     0.0000    60.0000 </r>
       <r>   -26.8615     0.0000    60.0000 </r>
       <r>   -26.6721     0.0000    60.0000 </r>
       <r>   -26.4826     0.0000    60.0000 </r>
       <r>   -26.2932     0.0000    60.0000 </r>
       <r>   -26.1038     0.0000    60.0000 </r>
       <r>   -25.9144     0.0000    60.0000 </r>
       <r>   -25.7250     0.0000    60.0000 </r>
       <r>   -25.5356     0.0000    60.0000 </r>
       <r>   -25.3462     0.0000    60.0000 </r>
       <r>   -25.1567     0.0000    60.0000 </r>
       <r>   -24.9673     0.0000    60.0000 </r>
       <r>   -24.7779     0.0000    60.0000 </r>
       <r>   -24.5885     0.0000    60.0000 </r>
       <r>   -24.3991     0.0000    60.0000 </r>
       <r>   -24.2097     0.0000    60.0000 </r>
       <r>   -24.0203     0.0000    60.0000 </r>
       <r>   -23.8308     0.0000    60.0000 </r>
       <r>   -23.6414     0.0000    60.0000 </r>
       <r>   -23.4520     0.0000    60.0000 </r>
       <r>   -23.2626     0.0000    60.0000 </r>
       <r>   -23.0732     0.0000    60.0000 </r>
       <r>   -22.8838     0.0000    60.0000 </r>
       <r>   -22.6944     0.0000    60.0000 </r>
       <r>   -22.5049     0.0000    60.0000 </r>
       <r>   -22.3155     0.0000    60.0000 </r>
       <r>   -22.1261     0.0000    60.0000 </r>
       <r>   -21.9367     0.0000    60.0000 </r>
       <r>   -21.7473     0.0000    60.0000 </r>
       <r>   -21.5579     0.0000    60.0000 </r>
       <r>   -21.3684     0.0000    60.0000 </r>
       <r>   -21.1790     0.0000    60.0000 </r>
       <r>   -20.9896     0.0000    60.0000 </r>
       <r>   -20.8002     0.0000    60.0000 </r>
       <r>   -20.6108     0.0000    60.0000 </r>
       <r>   -20.4214     0.0000    60.0000 </r>
       <r>   -20.2320     0.0000    60.0000 </r>
       <r>   -20.0425     0.0000    60.0000 </r>
       <r>   -19.8531     0.0000    60.0000 </r>
       <r>   -19.6637     0.0000    60.0000 </r>
       <r>   -19.4743     0.0000    60.0000 </r>
       <r>   -19.2849     0.0000    60.0000 </r>
       <r>   -19.0955     0.0000    60.0000 </r>
       <r>   -18.9061     0.0000    60.0000 </r>
       <r>   -18.7166     0.0000    60.0000 </r>
       <r>   -18.5272     0.0000    60.0000 </r>
       <r>   -18.3378     0.0000    60.0000 </r>
       <r>   -18.1484     0.0000    60.0000 </r>
       <r>   -17.9590     0.0000    60.0000 </r>
       <r>   -17.7696     0.0000    60.0000 </r>
       <r>   -17.5802     0.0000    60.0000 </r>
       <r>   -17.3907     0.0000    60.0000 </r>
       <r>   -17.2013     0.0000    60.0000 </r>
       <r>   -17.0119     0.0000    60.0000 </r>
       <r>   -16.8225     0.0000    60.0000 </r>
       <r>   -16.6331     0.0000    60.0000 </r>
       <r>   -16.4437     0.0000    60.0000 </r>
       <r>   -16.2543     0.0000    60.0000 </r>
       <r>   -16.0648     0.0000    60.0000 </r>
       <r>   -15.8754     0.0000    60.0000 </r>
       <r>   -15.6860     0.0000    60.0000 </r>
       <r>   -15.4966     0.0000    60.0000 </r>
       <r>   -15.3072     0.0000    60.0000 </r>
       <r>   -15.1178     0.0000    60.0000 </r>
       <r>   -14.9283     0.0000    60.0000 </r>
       <r>   -14.7389     0.0000    60.0000 </r>
       <r>   -14.5495     0.0000    60.0000 </r>
       <r>   -14.3601     0.0000    60.0000 </r>
       <r>   -14.1707     0.0000    60.0000 </r>
       <r>   -13.9813     0.0074    60.0014 </r>
       <r>   -13.7919    10.7080    62.0297 </r>
       <r>   -13.6024    10.3996    63.9995 </r>
       <r>   -13.4130     0.6465    64.1220 </r>
       <r>   -13.2236    19.7025    67.8539 </r>
       <r>   -13.0342    11.3231    69.9987 </r>
       <r>   -12.8448    10.6738    72.0204 </r>
       <r>   -12.6554    19.2130    75.6596 </r>
       <r>   -12.4660     9.5969    77.4774 </r>
       <r>   -12.2765    13.3240    80.0012 </r>
       <r>   -12.0871    10.6728    82.0228 </r>
       <r>   -11.8977    10.4400    84.0003 </r>
       <r>   -11.7083    20.0960    87.8068 </r>
       <r>   -11.5189     1.0202    88.0000 </r>
       <r>   -11.3295     5.8077    89.1001 </r>
       <r>   -11.1401     8.6825    90.7447 </r>
       <r>   -10.9506     6.6275    92.0000 </r>
       <r>   -10.7612     0.9428    92.1786 </r>
       <r>   -10.5718     9.6186    94.0005 </r>
       <r>   -10.3824    12.8051    96.4260 </r>
       <r>   -10.1930     8.3100    98.0000 </r>
       <r>   -10.0036     8.7040    99.6487 </r>
       <r>    -9.8142     1.8548   100.0000 </r>
       <r>    -9.6247     2.8354   100.5371 </r>
       <r>    -9.4353    14.0428   103.1970 </r>
       <r>    -9.2459    14.7982   106.0000 </r>
       <r>    -9.0565     8.8365   107.6737 </r>
       <r>    -8.8671    12.2813   110.0000 </r>
       <r>    -8.6777     9.9269   111.8803 </r>
       <r>    -8.4882     0.6319   112.0000 </r>
       <r>    -8.2988     0.0022   112.0004 </r>
       <r>    -8.1094    18.9614   115.5920 </r>
       <r>    -7.9200    10.2220   117.5282 </r>
       <r>    -7.7306    16.6286   120.6779 </r>
       <r>    -7.5412     7.1873   122.0392 </r>
       <r>    -7.3518    10.3465   123.9990 </r>
       <r>    -7.1623     0.0052   124.0000 </r>
       <r>    -6.9729     0.0000   124.0000 </r>
       <r>    -6.7835     0.0000   124.0000 </r>
       <r>    -6.5941     2.3041   124.4364 </r>
       <r>    -6.4047     8.2547   126.0000 </r>
       <r>    -6.2153     0.0000   126.0000 </r>
       <r>    -6.0259     0.1845   126.0350 </r>
       <r>    -5.8364    10.3682   127.9988 </r>
       <r>    -5.6470     0.0061   128.0000 </r>
       <r>    -5.4576     0.0401   128.0076 </r>
       <r>    -5.2682    10.4808   129.9928 </r>
       <r>    -5.0788     0.0380   130.0000 </r>
       <r>    -4.8894     0.0000   130.0000 </r>
       <r>    -4.7000     0.0000   130.0000 </r>
       <r>    -4.5105     0.0000   130.0000 </r>
       <r>    -4.3211     0.0000   130.0000 </r>
       <r>    -4.1317     0.0000   130.0000 </r>
       <r>    -3.9423     0.0000   130.0000 </r>
       <r>    -3.7529     4.9804   130.9434 </r>
       <r>    -3.5635    10.9316   133.0140 </r>
       <r>    -3.3740    15.8721   136.0204 </r>
       <r>    -3.1846    10.4937   138.0080 </r>
       <r>    -2.9952    26.7990   143.0842 </r>
       <r>    -2.8058    15.3155   145.9851 </r>
       <r>    -2.6164    18.4779   149.4851 </r>
       <r>    -2.4270    37.7981   156.6446 </r>
       <r>    -2.2376    31.3429   162.5814 </r>
       <r>    -2.0481    27.6340   167.8157 </r>
       <r>    -1.8587    32.9647   174.0597 </r>
       <r>    -1.6693    39.0243   181.4515 </r>
       <r>    -1.4799    25.4546   186.2730 </r>
       <r>    -1.2905    44.9784   194.7926 </r>
       <r>    -1.1011    34.4741   201.3225 </r>
       <r>    -0.9117    35.8346   208.1101 </r>
       <r>    -0.7222    37.8043   215.2708 </r>
       <r>    -0.5328    31.7831   221.2909 </r>
       <r>    -0.3434    35.0366   227.9274 </r>
       <r>    -0.1540    33.9820   234.3641 </r>
       <r>     0.0354    29.1068   239.8774 </r>
       <r>     0.2248    43.9873   248.2092 </r>
       <r>     0.4142    40.4900   255.8786 </r>
       <r>     0.6037    35.7651   262.6530 </r>
       <r>     0.7931    35.1679   269.3144 </r>
       <r>     0.9825    26.2911   274.2943 </r>
       <r>     1.1719    32.1259   280.3794 </r>
       <r>     1.3613    18.6837   283.9184 </r>
       <r>     1.5507    30.6958   289.7326 </r>
       <r>     1.7401    14.4893   292.4771 </r>
       <r>     1.9296    29.1137   297.9916 </r>
       <r>     2.1190    10.6014   299.9997 </r>
       <r>     2.3084     0.0016   300.0000 </r>
       <r>     2.4978     0.0000   300.0000 </r>
       <r>     2.6872     0.0000   300.0000 </r>
       <r>     2.8766     0.0000   300.0000 </r>
       <r>     3.0661     0.0000   300.0000 </r>
       <r>     3.2555     0.0000   300.0000 </r>
       <r>     3.4449     0.0000   300.0000 </r>
       <r>     3.6343     0.0344   300.0065 </r>
       <r>     3.8237    11.8770   302.2562 </r>
       <r>     4.0131    10.3931   304.2248 </r>
       <r>     4.2025     9.3848   306.0024 </r>
       <r>     4.3920    14.3247   308.7157 </r>
       <r>     4.5814    20.6794   312.6327 </r>
       <r>     4.7708    17.3742   315.9236 </r>
       <r>     4.9602    20.8624   319.8753 </r>
       <r>     5.1496    18.2988   323.3414 </r>
       <r>     5.3390    11.0675   325.4377 </r>
       <r>     5.5284    25.7964   330.3239 </r>
       <r>     5.7179    19.3392   333.9871 </r>
       <r>     5.9073    10.3430   335.9462 </r>
       <r>     6.0967    14.5373   338.6998 </r>
       <r>     6.2861    12.0878   340.9894 </r>
       <r>     6.4755    26.1188   345.9367 </r>
       <r>     6.6649    30.0124   351.6215 </r>
       <r>     6.8543    15.6855   354.5925 </r>
       <r>     7.0438    23.6094   359.0645 </r>
       <r>     7.2332    23.9170   363.5947 </r>
       <r>     7.4226    12.9544   366.0485 </r>
       <r>     7.6120    10.2994   367.9993 </r>
       <r>     7.8014     0.0034   368.0000 </r>
       <r>     7.9908     0.0000   368.0000 </r>
       <r>     8.1803     0.0000   368.0000 </r>
       <r>     8.3697     0.0000   368.0000 </r>
       <r>     8.5591     0.0000   368.0000 </r>
       <r>     8.7485     0.0000   368.0000 </r>
       <r>     8.9379     0.0000   368.0000 </r>
       <r>     9.1273     0.0000   368.0000 </r>
       <r>     9.3167     0.0000   368.0000 </r>
       <r>     9.5062     0.0000   368.0000 </r>
       <r>     9.6956     0.0000   368.0000 </r>
       <r>     9.8850     0.0000   368.0000 </r>
       <r>    10.0744     0.0000   368.0000 </r>
      </set>
     </set>
    </array>
   </total>
   <partial>
    <array>
     <dimension dim="1">gridpoints</dimension>
     <dimension dim="2">spin</dimension>
     <dimension dim="3">ion</dimension>
     <field>energy</field>
     <field>    s</field>
     <field>   py</field>
     <field>   pz</field>
     <field>   px</field>
     <field>  dxy</field>
     <field>  dyz</field>
     <field>  dz2</field>
     <field>  dxz</field>
     <field>x2-y2</field>
     <set>
[...]
        <r>  0.0001  0.0005  0.0004  0.0000  0.0000  0.0000  0.0000  0.0000  0.0000 </r>
        <r>  0.0007  0.0016  0.0000  0.0018  0.0000  0.0000  0.0000  0.0000  0.0000 </r>
        <r>  0.0002  0.0008  0.0004  0.0017  0.0000  0.0000  0.0000  0.0000  0.0000 </r>
        <r>  0.0002  0.0004  0.0004  0.0004  0.0000  0.0000  0.0000  0.0000  0.0000 </r>
        <r>  0.0001  0.0004  0.0012  0.0003  0.0000  0.0000  0.0000  0.0000  0.0000 </r>
        <r>  0.0004  0.0002  0.0010  0.0009  0.0000  0.0000  0.0000  0.0000  0.0000 </r>
        <r>  0.0015  0.0010  0.0041  0.0001  0.0000  0.0000  0.0000  0.0000  0.0000 </r>
        <r>  0.0013  0.0009  0.0000  0.0009  0.0000  0.0000  0.0000  0.0000  0.0000 </r>
        <r>  0.0006  0.0039  0.0003  0.0021  0.0000  0.0000  0.0000  0.0000  0.0000 </r>
        <r>  0.0002  0.0003  0.0002  0.0001  0.0000  0.0000  0.0000  0.0000  0.0000 </r>
        <r>  0.0006  0.0004  0.0005  0.0002  0.0000  0.0000  0.0000  0.0000  0.0000 </r>
        <r>  0.0006  0.0002  0.0000  0.0004  0.0000  0.0000  0.0000  0.0000  0.0000 </r>
        <r>  0.0017  0.0039  0.0003  0.0001  0.0000  0.0000  0.0000  0.0000  0.0000 </r>
        <r>  0.0003  0.0019  0.0003  0.0005  0.0000  0.0000  0.0000  0.0000  0.0000 </r>
        <r>  0.0005  0.0004  0.0004  0.0015  0.0000  0.0000  0.0000  0.0000  0.0000 </r>
        <r>  0.0001  0.0004  0.0003  0.0001  0.0000  0.0000  0.0000  0.0000  0.0000 </r>
        <r>  0.0001  0.0002  0.0023  0.0005  0.0000  0.0000  0.0000  0.0000  0.0000 </r>
        <r>  0.0007  0.0003  0.0006  0.0001  0.0000  0.0000  0.0000  0.0000  0.0000 </r>
        <r>  0.0028  0.0002  0.0000  0.0000  0.0000  0.0000  0.0000  0.0000  0.0000 </r>
        <r>  0.0002  0.0004  0.0005  0.0006  0.0000  0.0000  0.0000  0.0000  0.0000 </r>
        <r>  0.0001  0.0001  0.0007  0.0005  0.0000  0.0000  0.0000  0.0000  0.0000 </r>
        <r>  0.0002  0.0004  0.0019  0.0004  0.0000  0.0000  0.0000  0.0000  0.0000 </r>
        <r>  0.0002  0.0002  0.0006  0.0008  0.0000  0.0000  0.0000  0.0000  0.0000 </r>
        <r>  0.0018  0.0000  0.0006  0.0000  0.0000  0.0000  0.0000  0.0000  0.0000 </r>
        <r>  0.0003  0.0001  0.0046  0.0004  0.0000  0.0000  0.0000  0.0000  0.0000 </r>
        <r>  0.0023  0.0008  0.0008  0.0008  0.0000  0.0000  0.0000  0.0000  0.0000 </r>
        <r>  0.0002  0.0021  0.0003  0.0028  0.0000  0.0000  0.0000  0.0000  0.0000 </r>
        <r>  0.0004  0.0009  0.0008  0.0014  0.0000  0.0000  0.0000  0.0000  0.0000 </r>
        <r>  0.0006  0.0041  0.0010  0.0003  0.0000  0.0000  0.0000  0.0000  0.0000 </r>
        <r>  0.0002  0.0009  0.0006  0.0004  0.0000  0.0000  0.0000  0.0000  0.0000 </r>
        <r>  0.0003  0.0011  0.0003  0.0006  0.0000  0.0000  0.0000  0.0000  0.0000 </r>
        <r>  0.0000  0.0010  0.0002  0.0009  0.0000  0.0000  0.0000  0.0000  0.0000 </r>
        <r>  0.0013  0.0016  0.0000  0.0001  0.0000  0.0000  0.0000  0.0000  0.0000 </r>
        <r>  0.0005  0.0006  0.0000  0.0002  0.0000  0.0000  0.0000  0.0000  0.0000 </r>
        <r>  0.0024  0.0001  0.0013  0.0010  0.0000  0.0000  0.0000  0.0000  0.0000 </r>
        <r>  0.0021  0.0001  0.0004  0.0007  0.0000  0.0000  0.0000  0.0000  0.0000 </r>
        <r>  0.0002  0.0002  0.0001  0.0007  0.0000  0.0000  0.0000  0.0000  0.0000 </r>
        <r>  0.0005  0.0006  0.0021  0.0022  0.0000  0.0000  0.0000  0.0000  0.0000 </r>
        <r>  0.0000  0.0014  0.0000  0.0007  0.0000  0.0000  0.0000  0.0000  0.0000 </r>
       </set>
       <set comment="band 183">
        <r>  0.0001  0.0012  0.0022  0.0005  0.0000  0.0000  0.0000  0.0000  0.0000 </r>
        <r>  0.0008  0.0000  0.0000  0.0000  0.0000  0.0000  0.0000  0.0000  0.0000 </r>
        <r>  0.0004  0.0001  0.0004  0.0009  0.0000  0.0000  0.0000  0.0000  0.0000 </r>
        <r>  0.0001  0.0017  0.0013  0.0001  0.0000  0.0000  0.0000  0.0000  0.0000 </r>
        <r>  0.0006  0.0015  0.0006  0.0004  0.0000  0.0000  0.0000  0.0000  0.0000 </r>
        <r>  0.0000  0.0003  0.0003  0.0015  0.0000  0.0000  0.0000  0.0000  0.0000 </r>
        <r>  0.0002  0.0003  0.0005  0.0001  0.0000  0.0000  0.0000  0.0000  0.0000 </r>
        <r>  0.0000  0.0009  0.0001  0.0015  0.0000  0.0000  0.0000  0.0000  0.0000 </r>
        <r>  0.0004  0.0006  0.0008  0.0005  0.0000  0.0000  0.0000  0.0000  0.0000 </r>
        <r>  0.0003  0.0021  0.0005  0.0005  0.0000  0.0000  0.0000  0.0000  0.0000 </r>
        <r>  0.0004  0.0001  0.0002  0.0000  0.0000  0.0000  0.0000  0.0000  0.0000 </r>
        <r>  0.0002  0.0003  0.0014  0.0017  0.0000  0.0000  0.0000  0.0000  0.0000 </r>
        <r>  0.0001  0.0004  0.0008  0.0004  0.0000  0.0000  0.0000  0.0000  0.0000 </r>
        <r>  0.0003  0.0006  0.0003  0.0000  0.0000  0.0000  0.0000  0.0000  0.0000 </r>
        <r>  0.0004  0.0005  0.0002  0.0008  0.0000  0.0000  0.0000  0.0000  0.0000 </r>
        <r>  0.0005  0.0008  0.0006  0.0005  0.0000  0.0000  0.0000  0.0000  0.0000 </r>
        <r>  0.0004  0.0007  0.0002  0.0005  0.0000  0.0000  0.0000  0.0000  0.0000 </r>
        <r>  0.0004  0.0002  0.0005  0.0011  0.0000  0.0000  0.0000  0.0000  0.0000 </r>
        <r>  0.0007  0.0007  0.0000  0.0000  0.0000  0.0000  0.0000  0.0000  0.0000 </r>
        <r>  0.0002  0.0001  0.0003  0.0007  0.0000  0.0000  0.0000  0.0000  0.0000 </r>
        <r>  0.0000  0.0008  0.0003  0.0003  0.0000  0.0000  0.0000  0.0000  0.0000 </r>
        <r>  0.0006  0.0001  0.0000  0.0003  0.0000  0.0000  0.0000  0.0000  0.0000 </r>
        <r>  0.0011  0.0008  0.0013  0.0000  0.0000  0.0000  0.0000  0.0000  0.0000 </r>
        <r>  0.0000  0.0024  0.0004  0.0007  0.0000  0.0000  0.0000  0.0000  0.0000 </r>
        <r>  0.0002  0.0003  0.0002  0.0006  0.0000  0.0000  0.0000  0.0000  0.0000 </r>
        <r>  0.0004  0.0002  0.0018  0.0003  0.0000  0.0000  0.0000  0.0000  0.0000 </r>
        <r>  0.0009  0.0022  0.0003  0.0019  0.0000  0.0000  0.0000  0.0000  0.0000 </r>
        <r>  0.0003  0.0002  0.0017  0.0017  0.0000  0.0000  0.0000  0.0000  0.0000 </r>
        <r>  0.0003  0.0004  0.0001  0.0002  0.0000  0.0000  0.0000  0.0000  0.0000 </r>
        <r>  0.0031  0.0006  0.0008  0.0005  0.0000  0.0000  0.0000  0.0000  0.0000 </r>
        <r>  0.0003  0.0002  0.0006  0.0002  0.0000  0.0000  0.0000  0.0000  0.0000 </r>
        <r>  0.0005  0.0003  0.0001  0.0009  0.0000  0.0000  0.0000  0.0000  0.0000 </r>
        <r>  0.0001  0.0029  0.0031  0.0001  0.0000  0.0000  0.0000  0.0000  0.0000 </r>
        <r>  0.0014  0.0029  0.0001  0.0001  0.0000  0.0000  0.0000  0.0000  0.0000 </r>
        <r>  0.0010  0.0012  0.0016  0.0009  0.0000  0.0000  0.0000  0.0000  0.0000 </r>
        <r>  0.0004  0.0002  0.0012  0.0003  0.0000  0.0000  0.0000  0.0000  0.0000 </r>
        <r>  0.0005  0.0005  0.0000  0.0034  0.0000  0.0000  0.0000  0.0000  0.0000 </r>
        <r>  0.0000  0.0005  0.0006  0.0003  0.0000  0.0000  0.0000  0.0000  0.0000 </r>
        <r>  0.0008  0.0014  0.0010  0.0005  0.0000  0.0000  0.0000  0.0000  0.0000 </r>
        <r>  0.0004  0.0010  0.0007  0.0005  0.0000  0.0000  0.0000  0.0000  0.0000 </r>
        <r>  0.0002  0.0003  0.0002  0.0000  0.0000  0.0000  0.0000  0.0000  0.0000 </r>
        <r>  0.0001  0.0015  0.0010  0.0000  0.0000  0.0000  0.0000  0.0000  0.0000 </r>
        <r>  0.0001  0.0003  0.0030  0.0010  0.0000  0.0000  0.0000  0.0000  0.0000 </r>
        <r>  0.0003  0.0019  0.0019  0.0001  0.0000  0.0000  0.0000  0.0000  0.0000 </r>
        <r>  0.0001  0.0001  0.0008  0.0033  0.0000  0.0000  0.0000  0.0000  0.0000 </r>
        <r>  0.0001  0.0004  0.0010  0.0003  0.0000  0.0000  0.0000  0.0000  0.0000 </r>
        <r>  0.0007  0.0053  0.0007  0.0003  0.0000  0.0000  0.0000  0.0000  0.0000 </r>
        <r>  0.0000  0.0002  0.0006  0.0017  0.0000  0.0000  0.0000  0.0000  0.0000 </r>
        <r>  0.0012  0.0004  0.0052  0.0000  0.0000  0.0000  0.0000  0.0000  0.0000 </r>
        <r>  0.0008  0.0007  0.0010  0.0000  0.0000  0.0000  0.0000  0.0000  0.0000 </r>
        <r>  0.0072  0.0003  0.0000  0.0027  0.0000  0.0000  0.0000  0.0000  0.0000 </r>
        <r>  0.0004  0.0005  0.0022  0.0001  0.0000  0.0000  0.0000  0.0000  0.0000 </r>
        <r>  0.0003  0.0010  0.0022  0.0006  0.0000  0.0000  0.0000  0.0000  0.0000 </r>
        <r>  0.0012  0.0008  0.0001  0.0015  0.0000  0.0000  0.0000  0.0000  0.0000 </r>
        <r>  0.0008  0.0009  0.0013  0.0001  0.0000  0.0000  0.0000  0.0000  0.0000 </r>
        <r>  0.0004  0.0014  0.0004  0.0000  0.0000  0.0000  0.0000  0.0000  0.0000 </r>
        <r>  0.0000  0.0002  0.0001  0.0001  0.0000  0.0000  0.0000  0.0000  0.0000 </r>
        <r>  0.0010  0.0002  0.0016  0.0006  0.0000  0.0000  0.0000  0.0000  0.0000 </r>
        <r>  0.0010  0.0002  0.0002  0.0009  0.0000  0.0000  0.0000  0.0000  0.0000 </r>
        <r>  0.0004  0.0000  0.0009  0.0000  0.0000  0.0000  0.0000  0.0000  0.0000 </r>
        <r>  0.0017  0.0004  0.0002  0.0003  0.0000  0.0000  0.0000  0.0000  0.0000 </r>
        <r>  0.0027  0.0001  0.0011  0.0004  0.0000  0.0000  0.0000  0.0000  0.0000 </r>
        <r>  0.0022  0.0003  0.0003  0.0009  0.0000  0.0000  0.0000  0.0000  0.0000 </r>
        <r>  0.0003  0.0001  0.0006  0.0029  0.0000  0.0000  0.0000  0.0000  0.0000 </r>
        <r>  0.0032  0.0004  0.0002  0.0006  0.0000  0.0000  0.0000  0.0000  0.0000 </r>
       </set>
       <set comment="band 184">
        <r>  0.0008  0.0014  0.0009  0.0009  0.0000  0.0000  0.0000  0.0000  0.0000 </r>
        <r>  0.0019  0.0001  0.0014  0.0001  0.0000  0.0000  0.0000  0.0000  0.0000 </r>
        <r>  0.0002  0.0009  0.0011  0.0001  0.0000  0.0000  0.0000  0.0000  0.0000 </r>
        <r>  0.0001  0.0005  0.0005  0.0000  0.0000  0.0000  0.0000  0.0000  0.0000 </r>
        <r>  0.0001  0.0009  0.0004  0.0003  0.0000  0.0000  0.0000  0.0000  0.0000 </r>
        <r>  0.0003  0.0000  0.0001  0.0003  0.0000  0.0000  0.0000  0.0000  0.0000 </r>
        <r>  0.0004  0.0006  0.0005  0.0003  0.0000  0.0000  0.0000  0.0000  0.0000 </r>
        <r>  0.0001  0.0003  0.0006  0.0021  0.0000  0.0000  0.0000  0.0000  0.0000 </r>
        <r>  0.0007  0.0002  0.0013  0.0000  0.0000  0.0000  0.0000  0.0000  0.0000 </r>
        <r>  0.0012  0.0001  0.0002  0.0003  0.0000  0.0000  0.0000  0.0000  0.0000 </r>
        <r>  0.0000  0.0006  0.0002  0.0000  0.0000  0.0000  0.0000  0.0000  0.0000 </r>
        <r>  0.0006  0.0001  0.0009  0.0014  0.0000  0.0000  0.0000  0.0000  0.0000 </r>
        <r>  0.0001  0.0010  0.0002  0.0006  0.0000  0.0000  0.0000  0.0000  0.0000 </r>
        <r>  0.0005  0.0018  0.0006  0.0001  0.0000  0.0000  0.0000  0.0000  0.0000 </r>
        <r>  0.0002  0.0007  0.0007  0.0002  0.0000  0.0000  0.0000  0.0000  0.0000 </r>
        <r>  0.0014  0.0059  0.0008  0.0029  0.0000  0.0000  0.0000  0.0000  0.0000 </r>
        <r>  0.0001  0.0006  0.0011  0.0007  0.0000  0.0000  0.0000  0.0000  0.0000 </r>
        <r>  0.0000  0.0006  0.0035  0.0002  0.0000  0.0000  0.0000  0.0000  0.0000 </r>
        <r>  0.0011  0.0002  0.0005  0.0007  0.0000  0.0000  0.0000  0.0000  0.0000 </r>
        <r>  0.0002  0.0004  0.0000  0.0004  0.0000  0.0000  0.0000  0.0000  0.0000 </r>
        <r>  0.0001  0.0005  0.0004  0.0023  0.0000  0.0000  0.0000  0.0000  0.0000 </r>
        <r>  0.0007  0.0006  0.0013  0.0007  0.0000  0.0000  0.0000  0.0000  0.0000 </r>
        <r>  0.0006  0.0000  0.0001  0.0001  0.0000  0.0000  0.0000  0.0000  0.0000 </r>
        <r>  0.0004  0.0001  0.0011  0.0003  0.0000  0.0000  0.0000  0.0000  0.0000 </r>
        <r>  0.0002  0.0012  0.0005  0.0001  0.0000  0.0000  0.0000  0.0000  0.0000 </r>
        <r>  0.0002  0.0015  0.0004  0.0001  0.0000  0.0000  0.0000  0.0000  0.0000 </r>
        <r>  0.0001  0.0008  0.0024  0.0001  0.0000  0.0000  0.0000  0.0000  0.0000 </r>
        <r>  0.0001  0.0014  0.0000  0.0021  0.0000  0.0000  0.0000  0.0000  0.0000 </r>
        <r>  0.0004  0.0002  0.0004  0.0024  0.0000  0.0000  0.0000  0.0000  0.0000 </r>
        <r>  0.0019  0.0001  0.0009  0.0008  0.0000  0.0000  0.0000  0.0000  0.0000 </r>
        <r>  0.0007  0.0000  0.0001  0.0003  0.0000  0.0000  0.0000  0.0000  0.0000 </r>
        <r>  0.0003  0.0004  0.0004  0.0008  0.0000  0.0000  0.0000  0.0000  0.0000 </r>
        <r>  0.0008  0.0003  0.0020  0.0000  0.0000  0.0000  0.0000  0.0000  0.0000 </r>
        <r>  0.0001  0.0039  0.0007  0.0005  0.0000  0.0000  0.0000  0.0000  0.0000 </r>
        <r>  0.0000  0.0008  0.0007  0.0004  0.0000  0.0000  0.0000  0.0000  0.0000 </r>
        <r>  0.0005  0.0020  0.0001  0.0011  0.0000  0.0000  0.0000  0.0000  0.0000 </r>
        <r>  0.0003  0.0004  0.0011  0.0001  0.0000  0.0000  0.0000  0.0000  0.0000 </r>
        <r>  0.0006  0.0005  0.0001  0.0004  0.0000  0.0000  0.0000  0.0000  0.0000 </r>
        <r>  0.0001  0.0011  0.0004  0.0008  0.0000  0.0000  0.0000  0.0000  0.0000 </r>
        <r>  0.0003  0.0002  0.0008  0.0001  0.0000  0.0000  0.0000  0.0000  0.0000 </r>
        <r>  0.0001  0.0002  0.0001  0.0000  0.0000  0.0000  0.0000  0.0000  0.0000 </r>
        <r>  0.0000  0.0012  0.0004  0.0004  0.0000  0.0000  0.0000  0.0000  0.0000 </r>
        <r>  0.0001  0.0017  0.0003  0.0004  0.0000  0.0000  0.0000  0.0000  0.0000 </r>
        <r>  0.0001  0.0008  0.0010  0.0000  0.0000  0.0000  0.0000  0.0000  0.0000 </r>
        <r>  0.0001  0.0023  0.0003  0.0010  0.0000  0.0000  0.0000  0.0000  0.0000 </r>
        <r>  0.0015  0.0001  0.0029  0.0002  0.0000  0.0000  0.0000  0.0000  0.0000 </r>
        <r>  0.0012  0.0042  0.0008  0.0015  0.0000  0.0000  0.0000  0.0000  0.0000 </r>
        <r>  0.0012  0.0008  0.0003  0.0015  0.0000  0.0000  0.0000  0.0000  0.0000 </r>
        <r>  0.0007  0.0000  0.0006  0.0004  0.0000  0.0000  0.0000  0.0000  0.0000 </r>
        <r>  0.0001  0.0002  0.0000  0.0015  0.0000  0.0000  0.0000  0.0000  0.0000 </r>
        <r>  0.0024  0.0004  0.0006  0.0010  0.0000  0.0000  0.0000  0.0000  0.0000 </r>
        <r>  0.0004  0.0002  0.0009  0.0008  0.0000  0.0000  0.0000  0.0000  0.0000 </r>
        <r>  0.0001  0.0003  0.0029  0.0019  0.0000  0.0000  0.0000  0.0000  0.0000 </r>
        <r>  0.0065  0.0001  0.0004  0.0002  0.0000  0.0000  0.0000  0.0000  0.0000 </r>
        <r>  0.0023  0.0003  0.0041  0.0004  0.0000  0.0000  0.0000  0.0000  0.0000 </r>
        <r>  0.0001  0.0040  0.0005  0.0021  0.0000  0.0000  0.0000  0.0000  0.0000 </r>
        <r>  0.0014  0.0008  0.0009  0.0018  0.0000  0.0000  0.0000  0.0000  0.0000 </r>
        <r>  0.0006  0.0004  0.0002  0.0001  0.0000  0.0000  0.0000  0.0000  0.0000 </r>
        <r>  0.0008  0.0007  0.0013  0.0008  0.0000  0.0000  0.0000  0.0000  0.0000 </r>
        <r>  0.0000  0.0007  0.0057  0.0003  0.0000  0.0000  0.0000  0.0000  0.0000 </r>
        <r>  0.0018  0.0001  0.0032  0.0005  0.0000  0.0000  0.0000  0.0000  0.0000 </r>
        <r>  0.0006  0.0004  0.0011  0.0012  0.0000  0.0000  0.0000  0.0000  0.0000 </r>
        <r>  0.0005  0.0003  0.0003  0.0017  0.0000  0.0000  0.0000  0.0000  0.0000 </r>
        <r>  0.0000  0.0001  0.0002  0.0029  0.0000  0.0000  0.0000  0.0000  0.0000 </r>
        <r>  0.0000  0.0004  0.0002  0.0005  0.0000  0.0000  0.0000  0.0000  0.0000 </r>
       </set>
      </set>
     </set>
    </set>
   </array>
  </projected>
 </calculation>
 <structure name="finalpos" >
  <crystal>
   <varray name="basis" >
    <v>      10.25000000       0.00000000       0.00000000 </v>
    <v>       0.00000000      10.25000000       0.00000000 </v>
    <v>       0.00000000       0.00000000      12.35000000 </v>
   </varray>
   <i name="volume">   1297.52187500 </i>
   <varray name="rec_basis" >
    <v>       0.09756098       0.00000000       0.00000000 </v>
    <v>       0.00000000       0.09756098       0.00000000 </v>
    <v>       0.00000000       0.00000000       0.08097166 </v>
   </varray>
  </crystal>
  <varray name="positions" >
   <v>       0.62706244       0.89483707       0.00474717 </v>
   <v>       0.73201463       0.56912390       0.61189879 </v>
   <v>       0.22994439       0.17443415       0.02899466 </v>
   <v>       0.15400488       0.72559220       0.20580810 </v>
   <v>       0.29852683       0.20733951       0.32385344 </v>
   <v>       0.20027805       0.04847776       0.66294413 </v>
   <v>       0.73469854       0.55929951       0.21449069 </v>
   <v>       0.51114439       0.07256937       0.30170121 </v>
   <v>       0.98372683       0.93255902       0.58117247 </v>
   <v>       0.93840293       0.40242244       0.22742105 </v>
   <v>       0.43197171       0.96690634       0.52628664 </v>
   <v>       0.89188195       0.58840098       0.00802815 </v>
   <v>       0.01373132       0.36385951       0.73409150 </v>
   <v>       0.29651805       0.52304976       0.59932794 </v>
   <v>       0.61672488       0.23012000       0.98663158 </v>
   <v>       0.85278829       0.18470244       0.82690688 </v>
   <v>       0.62338829       0.53950244       0.98894737 </v>
   <v>       0.46277268       0.40461171       0.43203482 </v>
   <v>       0.47590537       0.66028098       0.14805344 </v>
   <v>       0.20749756       0.74940976       0.86628340 </v>
   <v>       0.69824683       0.24020780       0.21839028 </v>
   <v>       0.96934244       0.69773171       0.73138462 </v>
   <v>       0.01840449       0.37098634       0.45503725 </v>
   <v>       0.90828195       0.20773366       0.04071401 </v>
   <v>       0.71867122       0.13444780       0.44928745 </v>
   <v>       0.54258537       0.63273854       0.77496680 </v>
   <v>       0.62416878       0.81990341       0.24899028 </v>
   <v>       0.70336878       0.03304224       0.77189150 </v>
   <v>       0.60140585       0.27835805       0.61539028 </v>
   <v>       0.88078244       0.87017854       0.03536632 </v>
   <v>       0.29048293       0.60730049       0.33813603 </v>
   <v>       0.28368293       0.46926732       0.88482591 </v>
   <v>       0.09520098       0.43235122       0.97982186 </v>
   <v>       0.19750146       0.71374146       0.48787692 </v>
   <v>       0.98685854       0.62113268       0.45446559 </v>
   <v>       0.36841463       0.10564878       0.80551822 </v>
   <v>       0.38367512       0.88768488       0.21965587 </v>
   <v>       0.43451512       0.91220195       0.82858300 </v>
   <v>       0.19841463       0.90678634       0.48083077 </v>
   <v>       0.85982732       0.73686634       0.54551498 </v>
   <v>       0.02565434       0.19546244       0.59162105 </v>
   <v>       0.49762732       0.61615512       0.33619352 </v>
   <v>       0.39590439       0.61684683       0.94944130 </v>
   <v>       0.17859317       0.38844976       0.13715223 </v>
   <v>       0.18193561       0.55632488       0.74804534 </v>
   <v>       0.77474634       0.37432098       0.07997190 </v>
   <v>       0.77016390       0.56684000       0.81661538 </v>
   <v>       0.07782771       0.24354146       0.90259109 </v>
   <v>       0.94977171       0.65192390       0.29098785 </v>
   <v>       0.08878771       0.21442927       0.18794170 </v>
   <v>       0.78458244       0.04696917       0.95354656 </v>
   <v>       0.83698439       0.12258634       0.61175628 </v>
   <v>       0.48357463       0.17725171       0.46354575 </v>
   <v>       0.68874537       0.72297951       0.08758462 </v>
   <v>       0.80210634       0.40013366       0.73718462 </v>
   <v>       0.45715707       0.18511220       0.14092470 </v>
   <v>       0.53658732       0.22124780       0.80562591 </v>
   <v>       0.54787512       0.85303024       0.68973765 </v>
   <v>       0.41221366       0.00818782       0.07974057 </v>
   <v>       0.24297951       0.42991610       0.41217814 </v>
   <v>       0.52463122       0.49636976       0.60939109 </v>
   <v>       0.79360000       0.34266829       0.37626154 </v>
   <v>       0.07849707       0.89975707       0.75999919 </v>
   <v>       0.74652293       0.02250556       0.28761862 </v>
   <v>       0.06993366       0.75744195       0.02782745 </v>
  </varray>
 </structure>
</modeling>
