LPSC                                    
           1
    10.250000    0.000000    0.000000
     0.000000   10.250000    0.000000
     0.000000    0.000000   12.350000
   Li   P    S    Cl
  30   5  25   5
Direct configuration=     1
   0.62706244  0.89483707  0.00474717
   0.73201463  0.56912390  0.61189879
   0.22994439  0.17443415  0.02899466
   0.15400488  0.72559220  0.20580810
   0.29852683  0.20733951  0.32385344
   0.20027805  0.04847776  0.66294413
   0.73469854  0.55929951  0.21449069
   0.51114439  0.07256937  0.30170121
   0.98372683  0.93255902  0.58117247
   0.93840293  0.40242244  0.22742105
   0.43197171  0.96690634  0.52628664
   0.89188195  0.58840098  0.00802815
   0.01373132  0.36385951  0.73409150
   0.29651805  0.52304976  0.59932794
   0.61672488  0.23012000  0.98663158
   0.85278829  0.18470244  0.82690688
   0.62338829  0.53950244  0.98894737
   0.46277268  0.40461171  0.43203482
   0.47590537  0.66028098  0.14805344
   0.20749756  0.74940976  0.86628340
   0.69824683  0.24020780  0.21839028
   0.96934244  0.69773171  0.73138462
   0.01840449  0.37098634  0.45503725
   0.90828195  0.20773366  0.04071401
   0.71867122  0.13444780  0.44928745
   0.54258537  0.63273854  0.77496680
   0.62416878  0.81990341  0.24899028
   0.70336878  0.03304224  0.77189150
   0.60140585  0.27835805  0.61539028
   0.88078244  0.87017854  0.03536632
   0.29048293  0.60730049  0.33813603
   0.28368293  0.46926732  0.88482591
   0.09520098  0.43235122  0.97982186
   0.19750146  0.71374146  0.48787692
   0.98685854  0.62113268  0.45446559
   0.36841463  0.10564878  0.80551822
   0.38367512  0.88768488  0.21965587
   0.43451512  0.91220195  0.82858300
   0.19841463  0.90678634  0.48083077
   0.85982732  0.73686634  0.54551498
   0.02565434  0.19546244  0.59162105
   0.49762732  0.61615512  0.33619352
   0.39590439  0.61684683  0.94944130
   0.17859317  0.38844976  0.13715223
   0.18193561  0.55632488  0.74804534
   0.77474634  0.37432098  0.07997190
   0.77016390  0.56684000  0.81661538
   0.07782771  0.24354146  0.90259109
   0.94977171  0.65192390  0.29098785
   0.08878771  0.21442927  0.18794170
   0.78458244  0.04696917  0.95354656
   0.83698439  0.12258634  0.61175628
   0.48357463  0.17725171  0.46354575
   0.68874537  0.72297951  0.08758462
   0.80210634  0.40013366  0.73718462
   0.45715707  0.18511220  0.14092470
   0.53658732  0.22124780  0.80562591
   0.54787512  0.85303024  0.68973765
   0.41221366  0.00818782  0.07974057
   0.24297951  0.42991610  0.41217814
   0.52463122  0.49636976  0.60939109
   0.79360000  0.34266829  0.37626154
   0.07849707  0.89975707  0.75999919
   0.74652293  0.02250556  0.28761862
   0.06993366  0.75744195  0.02782745
