       N       E                     dE             d eps       ncg     rms          rms(c)
RMM:   1    -0.382834286798E+04   -0.38283E+04   -0.47015E+05   592   0.130E+03
RMM:   2     0.238429313040E+04    0.62126E+04   -0.73554E+04   592   0.251E+02
RMM:   3     0.786447228043E+03   -0.15978E+04   -0.23380E+04   592   0.134E+02
RMM:   4    -0.433131854939E+02   -0.82976E+03   -0.83268E+03   592   0.973E+01
RMM:   5    -0.404713135083E+03   -0.36140E+03   -0.33136E+03   592   0.633E+01
RMM:   6    -0.555820466266E+03   -0.15111E+03   -0.13928E+03   592   0.465E+01
RMM:   7    -0.627589112529E+03   -0.71769E+02   -0.68844E+02   592   0.356E+01
RMM:   8    -0.669346326190E+03   -0.41757E+02   -0.39351E+02   592   0.304E+01
RMM:   9    -0.779428908393E+03   -0.11008E+03   -0.10933E+03  2144   0.265E+01
RMM:  10    -0.835570013978E+03   -0.56141E+02   -0.55299E+02  2136   0.171E+01
RMM:  11    -0.848605162531E+03   -0.13035E+02   -0.13263E+02  2072   0.104E+01
RMM:  12    -0.855223260230E+03   -0.66181E+01   -0.66102E+01  2040   0.744E+00    0.722E+01
RMM:  13    -0.818850972420E+03    0.36372E+02   -0.88846E+01  1593   0.800E+00    0.476E+01
RMM:  14    -0.815735972821E+03    0.31150E+01   -0.75005E+01  1657   0.712E+00    0.160E+01
RMM:  15    -0.818093165662E+03   -0.23572E+01   -0.26317E+01  1843   0.445E+00    0.736E+00
RMM:  16    -0.817044568806E+03    0.10486E+01   -0.57093E+00  2010   0.278E+00    0.508E+00
RMM:  17    -0.816292460489E+03    0.75211E+00   -0.53690E+00  1937   0.219E+00    0.265E+00
RMM:  18    -0.816394544156E+03   -0.10208E+00   -0.23745E+00  1956   0.163E+00    0.202E+00
RMM:  19    -0.816398460605E+03   -0.39164E-02   -0.15474E+00  1940   0.135E+00    0.113E+00
RMM:  20    -0.816492622019E+03   -0.94161E-01   -0.12300E+00  2039   0.107E+00    0.664E-01
RMM:  21    -0.816535199937E+03   -0.42578E-01   -0.52043E-01  2020   0.845E-01    0.238E-01
RMM:  22    -0.816577786013E+03   -0.42586E-01   -0.44711E-01  2046   0.691E-01    0.281E-01
RMM:  23    -0.816601182897E+03   -0.23397E-01   -0.24863E-01  2041   0.556E-01    0.336E-01
RMM:  24    -0.816615514011E+03   -0.14331E-01   -0.16530E-01  1954   0.454E-01    0.473E-01
RMM:  25    -0.816626571258E+03   -0.11057E-01   -0.11511E-01  1959   0.384E-01    0.368E-01
RMM:  26    -0.816634706369E+03   -0.81351E-02   -0.85415E-02  2043   0.320E-01    0.199E-01
RMM:  27    -0.816640117362E+03   -0.54110E-02   -0.58330E-02  2048   0.259E-01    0.159E-01
RMM:  28    -0.816643025492E+03   -0.29081E-02   -0.32860E-02  2048   0.205E-01    0.125E-01
RMM:  29    -0.816644925352E+03   -0.18999E-02   -0.24725E-02  2047   0.174E-01    0.909E-02
RMM:  30    -0.816646429337E+03   -0.15040E-02   -0.16943E-02  2049   0.141E-01    0.771E-02
RMM:  31    -0.816647879956E+03   -0.14506E-02   -0.12495E-02  1951   0.119E-01    0.228E-02
RMM:  32    -0.816648671737E+03   -0.79178E-03   -0.83153E-03  1885   0.988E-02    0.211E-02
RMM:  33    -0.816649309816E+03   -0.63808E-03   -0.66566E-03  1860   0.833E-02    0.291E-02
RMM:  34    -0.816649703980E+03   -0.39416E-03   -0.41632E-03  1856   0.690E-02    0.411E-02
RMM:  35    -0.816649994053E+03   -0.29007E-03   -0.32093E-03  1856   0.586E-02    0.463E-02
RMM:  36    -0.816650191505E+03   -0.19745E-03   -0.22713E-03  1853   0.493E-02    0.518E-02
RMM:  37    -0.816650324954E+03   -0.13345E-03   -0.16088E-03  1853   0.416E-02    0.531E-02
RMM:  38    -0.816650426399E+03   -0.10144E-03   -0.12321E-03  1857   0.352E-02    0.505E-02
RMM:  39    -0.816650498548E+03   -0.72149E-04   -0.86135E-04  1843   0.296E-02    0.496E-02
RMM:  40    -0.816650550318E+03   -0.51770E-04   -0.62884E-04  1834   0.250E-02    0.529E-02
RMM:  41    -0.816650588659E+03   -0.38341E-04   -0.47467E-04  1786   0.214E-02    0.539E-02
RMM:  42    -0.816650614291E+03   -0.25631E-04   -0.33491E-04  1763   0.182E-02    0.567E-02
RMM:  43    -0.816650633903E+03   -0.19613E-04   -0.26008E-04  1691   0.157E-02    0.579E-02
RMM:  44    -0.816650648384E+03   -0.14480E-04   -0.19504E-04  1617   0.135E-02    0.584E-02
RMM:  45    -0.816650657401E+03   -0.90177E-05   -0.12790E-04  1602   0.118E-02    0.549E-02
RMM:  46    -0.816650666358E+03   -0.89570E-05   -0.12292E-04  1556   0.105E-02    0.539E-02
RMM:  47    -0.816650670390E+03   -0.40320E-05   -0.70508E-05  1374   0.905E-03    0.543E-02
RMM:  48    -0.816650674180E+03   -0.37900E-05   -0.57814E-05  1334   0.816E-03    0.549E-02
RMM:  49    -0.816650676798E+03   -0.26181E-05   -0.42237E-05  1359   0.745E-03    0.554E-02
RMM:  50    -0.816650678658E+03   -0.18593E-05   -0.32201E-05  1288   0.686E-03    0.557E-02
RMM:  51    -0.816650679940E+03   -0.12826E-05   -0.23337E-05  1198   0.642E-03    0.559E-02
RMM:  52    -0.816650680900E+03   -0.95935E-06   -0.17445E-05  1127   0.608E-03    0.562E-02
RMM:  53    -0.816650681824E+03   -0.92390E-06   -0.15434E-05  1183   0.584E-03    0.563E-02
RMM:  54    -0.816650682304E+03   -0.48067E-06   -0.11079E-05  1076   0.562E-03    0.564E-02
RMM:  55    -0.816650682732E+03   -0.42808E-06   -0.94158E-06  1062   0.549E-03
   1 F= -.81665068E+03 E0= -.81665051E+03  d E =-.816651E+03
