 vasp.5.4.4.18Apr17-6-g9f103f2a35 (build Jan 22 2020 12:49:05) complex          
  
 executed on Bebop BDW IPS19.0.5  date 2022.10.04  13:21:12
 running on   64 total cores
 distrk:  each k-point on   64 cores,    1 groups
 distr:  one band on NCORES_PER_BAND=   8 cores,    8 groups


--------------------------------------------------------------------------------------------------------


 INCAR:
 POTCAR:    PAW_PBE Li_sv 10Sep2004               
 POTCAR:    PAW_PBE P 06Sep2000                   
 POTCAR:    PAW_PBE S 06Sep2000                   
 POTCAR:    PAW_PBE Cl 06Sep2000                  
 POTCAR:    PAW_PBE Li_sv 10Sep2004               
   VRHFIN =Li: 1s2s2p                                                           
   LEXCH  = PE                                                                  
   EATOM  =   202.7858 eV,   14.9043 Ry                                         
                                                                                
   TITEL  = PAW_PBE Li_sv 10Sep2004                                             
   LULTRA =        F    use ultrasoft PP ?                                      
   IUNSCR =        0    unscreen: 0-lin 1-nonlin 2-no                           
   RPACOR =    0.000    partial core radius                                     
   POMASS =    7.010; ZVAL   =    3.000    mass and valenz                      
   RCORE  =    1.700    outmost cutoff radius                                   
   RWIGS  =    2.050; RWIGS  =    1.085    wigner-seitz radius (au A)           
   ENMAX  =  499.034; ENMIN  =  374.276 eV                                      
   ICORE  =        2    local potential                                         
   LCOR   =        T    correct aug charges                                     
   LPAW   =        T    paw PP                                                  
   EAUG   =  628.945                                                            
   RMAX   =    1.732    core radius for proj-oper                               
   RAUG   =    1.300    factor for augmentation sphere                          
   RDEP   =    1.728    radius for radial grids                                 
   RDEPT  =    1.329    core radius for aug-charge                              
                                                                                
   Atomic configuration                                                         
    4 entries                                                                   
     n  l   j            E        occ.                                          
     1  0  0.50       -51.8549   2.0000                                         
     2  0  0.50        -2.8742   1.0000                                         
     2  1  0.50        -1.3606   0.0000                                         
     3  2  1.50        -1.3606   0.0000                                         
   Description                                                                  
     l       E           TYP  RCUT    TYP  RCUT                                 
     0    -51.8548813     23  1.400                                             
     0     -2.8742052     23  1.700                                             
     1     -1.3605826     23  1.400                                             
     2     -1.3605826     23  1.400                                             
  local pseudopotential read in
  atomic valenz-charges read in
  non local Contribution for L=           0  read in
    real space projection operators read in
  non local Contribution for L=           0  read in
    real space projection operators read in
  non local Contribution for L=           1  read in
    real space projection operators read in
    PAW grid and wavefunctions read in
 
   number of l-projection  operators is LMAX  =           3
   number of lm-projection operators is LMMAX =           5
 
 POTCAR:    PAW_PBE P 06Sep2000                   
   VRHFIN =P : s2p3                                                             
   LEXCH  = PE                                                                  
   EATOM  =   176.0430 eV,   12.9388 Ry                                         
                                                                                
   TITEL  = PAW_PBE P 06Sep2000                                                 
   LULTRA =        F    use ultrasoft PP ?                                      
   IUNSCR =        1    unscreen: 0-lin 1-nonlin 2-no                           
   RPACOR =    1.500    partial core radius                                     
   POMASS =   30.974; ZVAL   =    5.000    mass and valenz                      
   RCORE  =    1.900    outmost cutoff radius                                   
   RWIGS  =    2.330; RWIGS  =    1.233    wigner-seitz radius (au A)           
   ENMAX  =  255.040; ENMIN  =  191.280 eV                                      
   ICORE  =        2    local potential                                         
   LCOR   =        T    correct aug charges                                     
   LPAW   =        T    paw PP                                                  
   EAUG   =  342.924                                                            
   DEXC   =    0.000                                                            
   RMAX   =    1.935    core radius for proj-oper                               
   RAUG   =    1.300    factor for augmentation sphere                          
   RDEP   =    1.931    radius for radial grids                                 
   RDEPT  =    1.794    core radius for aug-charge                              
                                                                                
   Atomic configuration                                                         
    6 entries                                                                   
     n  l   j            E        occ.                                          
     1  0  0.50     -2084.0982   2.0000                                         
     2  0  0.50      -173.9859   2.0000                                         
     2  1  1.50      -124.4865   6.0000                                         
     3  0  0.50       -13.9692   2.0000                                         
     3  1  0.50        -5.5067   3.0000                                         
     3  2  1.50        -5.4423   0.0000                                         
   Description                                                                  
     l       E           TYP  RCUT    TYP  RCUT                                 
     0    -13.9691527     23  1.900                                             
     0    -11.7794650     23  1.900                                             
     1     -5.5066937     23  1.900                                             
     1     -0.2556953     23  1.900                                             
     2     -5.4423304     23  1.900                                             
  local pseudopotential read in
  partial core-charges read in
  partial kinetic energy density read in
  atomic valenz-charges read in
  non local Contribution for L=           0  read in
    real space projection operators read in
  non local Contribution for L=           0  read in
    real space projection operators read in
  non local Contribution for L=           1  read in
    real space projection operators read in
  non local Contribution for L=           1  read in
    real space projection operators read in
    PAW grid and wavefunctions read in
 
   number of l-projection  operators is LMAX  =           4
   number of lm-projection operators is LMMAX =           8
 
 POTCAR:    PAW_PBE S 06Sep2000                   
   VRHFIN =S : s2p4                                                             
   LEXCH  = PE                                                                  
   EATOM  =   276.8230 eV,   20.3459 Ry                                         
                                                                                
   TITEL  = PAW_PBE S 06Sep2000                                                 
   LULTRA =        F    use ultrasoft PP ?                                      
   IUNSCR =        1    unscreen: 0-lin 1-nonlin 2-no                           
   RPACOR =    1.500    partial core radius                                     
   POMASS =   32.066; ZVAL   =    6.000    mass and valenz                      
   RCORE  =    1.900    outmost cutoff radius                                   
   RWIGS  =    2.200; RWIGS  =    1.164    wigner-seitz radius (au A)           
   ENMAX  =  258.689; ENMIN  =  194.016 eV                                      
   ICORE  =        2    local potential                                         
   LCOR   =        T    correct aug charges                                     
   LPAW   =        T    paw PP                                                  
   EAUG   =  335.092                                                            
   DEXC   =    0.000                                                            
   RMAX   =    1.942    core radius for proj-oper                               
   RAUG   =    1.300    factor for augmentation sphere                          
   RDEP   =    1.954    radius for radial grids                                 
   RDEPT  =    1.744    core radius for aug-charge                              
                                                                                
   Atomic configuration                                                         
    6 entries                                                                   
     n  l   j            E        occ.                                          
     1  0  0.50     -2405.8406   2.0000                                         
     2  0  0.50      -211.7007   2.0000                                         
     2  1  1.50      -156.4958   6.0000                                         
     3  0  0.50       -17.2562   2.0000                                         
     3  1  0.50        -7.0085   4.0000                                         
     3  2  1.50        -6.8029   0.0000                                         
   Description                                                                  
     l       E           TYP  RCUT    TYP  RCUT                                 
     0    -17.2561641     23  1.900                                             
     0    -15.8743224     23  1.900                                             
     1     -7.0085400     23  1.900                                             
     1     -2.7779785     23  1.900                                             
     2     -6.8029130     23  1.900                                             
  local pseudopotential read in
  partial core-charges read in
  partial kinetic energy density read in
  atomic valenz-charges read in
  non local Contribution for L=           0  read in
    real space projection operators read in
  non local Contribution for L=           0  read in
    real space projection operators read in
  non local Contribution for L=           1  read in
    real space projection operators read in
  non local Contribution for L=           1  read in
    real space projection operators read in
    PAW grid and wavefunctions read in
 
   number of l-projection  operators is LMAX  =           4
   number of lm-projection operators is LMMAX =           8
 
 POTCAR:    PAW_PBE Cl 06Sep2000                  
   VRHFIN =Cl: s2p5                                                             
   LEXCH  = PE                                                                  
   EATOM  =   409.7259 eV,   30.1140 Ry                                         
                                                                                
   TITEL  = PAW_PBE Cl 06Sep2000                                                
   LULTRA =        F    use ultrasoft PP ?                                      
   IUNSCR =        1    unscreen: 0-lin 1-nonlin 2-no                           
   RPACOR =    1.500    partial core radius                                     
   POMASS =   35.453; ZVAL   =    7.000    mass and valenz                      
   RCORE  =    1.900    outmost cutoff radius                                   
   RWIGS  =    2.100; RWIGS  =    1.111    wigner-seitz radius (au A)           
   ENMAX  =  262.472; ENMIN  =  196.854 eV                                      
   ICORE  =        2    local potential                                         
   LCOR   =        T    correct aug charges                                     
   LPAW   =        T    paw PP                                                  
   EAUG   =  356.192                                                            
   DEXC   =    0.000                                                            
   RMAX   =    1.945    core radius for proj-oper                               
   RAUG   =    1.300    factor for augmentation sphere                          
   RDEP   =    2.020    radius for radial grids                                 
   RDEPT  =    1.678    core radius for aug-charge                              
                                                                                
   Atomic configuration                                                         
    6 entries                                                                   
     n  l   j            E        occ.                                          
     1  0  0.50     -2751.1850   2.0000                                         
     2  0  0.50      -252.6861   2.0000                                         
     2  1  1.50      -191.6157   6.0000                                         
     3  0  0.50       -20.6916   2.0000                                         
     3  1  0.50        -8.5949   5.0000                                         
     3  2  1.50        -8.1635   0.0000                                         
   Description                                                                  
     l       E           TYP  RCUT    TYP  RCUT                                 
     0    -20.6915656     23  1.900                                             
     0    -22.0521482     23  1.900                                             
     1     -8.5948577     23  1.900                                             
     1     -5.3847331     23  1.900                                             
     2     -8.1634956     23  1.900                                             
  local pseudopotential read in
  partial core-charges read in
  partial kinetic energy density read in
  atomic valenz-charges read in
  non local Contribution for L=           0  read in
    real space projection operators read in
  non local Contribution for L=           0  read in
    real space projection operators read in
  non local Contribution for L=           1  read in
    real space projection operators read in
  non local Contribution for L=           1  read in
    real space projection operators read in
    PAW grid and wavefunctions read in
 
   number of l-projection  operators is LMAX  =           4
   number of lm-projection operators is LMMAX =           8
 

 ----------------------------------------------------------------------------- 
|                                                                             |
|  ADVICE TO THIS USER RUNNING 'VASP/VAMP'   (HEAR YOUR MASTER'S VOICE ...):  |
|                                                                             |
|      You have a (more or less) 'large supercell' and for larger cells       |
|      it might be more efficient to use real space projection opertators     |
|      So try LREAL= Auto  in the INCAR   file.                               |
|      Mind:          For very  accurate calculation you might also keep the  |
|      reciprocal projection scheme          (i.e. LREAL=.FALSE.)             |
|                                                                             |
 ----------------------------------------------------------------------------- 

  PAW_PBE Li_sv 10Sep2004               :
 energy of atom  1       EATOM= -202.7858
 kinetic energy error for atom=    0.0143 (will be added to EATOM!!)
  PAW_PBE P 06Sep2000                   :
 energy of atom  2       EATOM= -176.0430
 kinetic energy error for atom=    0.0013 (will be added to EATOM!!)
  PAW_PBE S 06Sep2000                   :
 energy of atom  3       EATOM= -276.8230
 kinetic energy error for atom=    0.0020 (will be added to EATOM!!)
  PAW_PBE Cl 06Sep2000                  :
 energy of atom  4       EATOM= -409.7259
 kinetic energy error for atom=    0.0030 (will be added to EATOM!!)
 
 
 POSCAR: New POSCAR file                         
  positions in cartesian coordinates
  No initial velocities read in
 exchange correlation table for  LEXCH =        8
   RHO(1)=    0.500       N(1)  =     2000
   RHO(2)=  100.500       N(2)  =     4000
 


--------------------------------------------------------------------------------------------------------


 ion  position               nearest neighbor table
   1  0.718  0.816  0.192- 118 2.13
   2  0.571  0.671  0.008- 196 2.49 158 2.60
   3  0.665  0.629  0.193- 177 2.33 130 2.51 165 2.53 118 2.57
   4  0.831  0.937  0.016- 151 2.12 155 2.29 153 2.34 107 2.55
   5  0.580  0.777  0.290- 118 2.25 177 2.35 171 2.36 191 2.49
   6  0.905  0.759  0.915- 204 2.52 156 2.57 180 2.60
   7  0.234  0.049  0.044- 198 2.43 178 2.56
   8  0.216  0.854  0.285- 202 2.17 170 2.65
   9  0.117  1.000  0.359- 125 2.23
  10  0.228  0.741  0.055- 201 2.27 159 2.47 170 2.47 178 2.64
  11  0.100  0.692  0.899- 144 2.41 180 2.43
  12  0.335  0.845  0.429- 127 2.33 171 2.35 125 2.49
  13  0.381  0.484  0.609- 138 2.34 208 2.42
  14  0.531  0.807  0.528- 115 2.51 120 2.59 114 2.60 179 2.62
  15  0.716  0.859  0.766- 150 2.31 151 2.61 116 2.66 115 2.67
  16  0.338  0.644  0.434- 172 2.07 142 2.46
  17  0.707  0.525  0.766- 176 2.54 117 2.58 174 2.58 168 2.63
  18  0.160  0.711  0.632- 141 2.29 144 2.29 104 2.76
  19  0.971  0.908  0.876- 204 2.47 155 2.48
  20  0.919  0.471  0.965- 133 2.26 205 2.48 180 2.56 167 2.61
  21  0.160  0.474  0.681- 181 2.44 143 2.46 208 2.52 134 2.53
  22  0.504  0.895  0.856- 196 2.26 193 2.61
  23  0.006  0.629  0.745- 135 2.62
  24  0.845  0.586  0.851- 180 2.37 168 2.44 135 2.60
  25  0.353  0.477  0.878- 181 2.27 160 2.35  78 2.60 112 2.78
  26  0.081  0.511  0.869- 205 2.23 134 2.33 180 2.52 181 2.62
  27  0.236  0.612  0.822- 144 2.23 181 2.31 197 2.45 159 2.64
  28  0.420  0.705  0.919- 196 2.08 197 2.49 158 2.55
  29  0.067  0.315  0.690- 200 2.17 134 2.38 189 2.49
  30  0.535  0.645  0.746- 117 2.46 197 2.54  98 2.74
  31  0.274  0.277  0.050- 182 2.43 124 2.50 160 2.52  32 2.60  34 2.60
  32  0.350  0.174  0.147-  99 2.40 182 2.45  31 2.60 194 2.63
  33  0.463  0.071  0.018- 182 2.23 193 2.45 175 2.66
  34  0.430  0.321  0.042- 160 2.28 182 2.50  31 2.60 121 2.68
  35  0.630  0.385  0.186- 190 2.14 165 2.38 148 2.65
  36  0.066  0.164  0.123- 163 2.45 198 2.46 123 2.51
  37  0.797  0.104  0.486- 113 2.25 199 2.40 207 2.55
  38  0.813  0.310  0.671- 183 2.33 174 2.42 102 2.72
  39  0.627  0.006  0.936- 193 2.25 149 2.48 150 2.56 175 2.63
  40  0.577  0.311  0.685- 103 2.10 173 2.23
  41  0.869  0.174  0.806- 189 2.26 152 2.29 183 2.66
  42  0.768  0.315  0.866- 133 2.26 183 2.33 167 2.59
  43  0.476  0.215  0.350- 122 2.39 145 2.42 148 2.53 140 2.55
  44  0.251  0.003  0.734- 187 2.18 203 2.58
  45  0.325  0.088  0.342- 145 2.47 125 2.54
  46  0.978  0.160  0.635- 199 2.31 200 2.63 189 2.69
  47  0.410  0.990  0.503- 145 2.44 126 2.60 119 2.62
  48  0.947  0.325  0.422- 129 2.28 185 2.30
  49  0.381  0.413  0.394- 122 2.25 195 2.37 138 2.54
  50  0.002  0.216  0.272- 161 2.31 123 2.31 185 2.61 163 2.66
  51  0.186  0.277  0.309- 185 2.40 124 2.44 123 2.60 122 2.65
  52  0.968  0.389  0.211- 164 2.46 186 2.51 163 2.52 185 2.62
  53  0.133  0.485  0.321- 131 2.25 169 2.43 185 2.48 195 2.62
  54  0.278  0.490  0.189- 169 2.44 124 2.47 108 2.57 157 2.59 121 2.69
  55  0.788  0.608  0.313- 130 2.39 118 2.42 154 2.43 101 2.73
  56  0.106  0.579  0.084- 169 2.46 201 2.52 186 2.55
  57  0.806  0.469  0.123- 167 2.38 164 2.42 165 2.60 186 2.68
  58  0.088  0.700  0.299- 131 2.36 202 2.47 169 2.53
  59  0.956  0.661  0.048- 180 2.28 201 2.42 156 2.54 186 2.64
  60  0.110  0.412  0.467- 195 2.35 143 2.39 185 2.46
  61  0.438  0.018  0.748- 119 2.40 187 2.42 175 2.45
  62  0.324  0.940  0.917- 178 2.19 187 2.19  65 2.50
  63  0.383  0.887  0.637- 119 2.24 127 2.25 187 2.61
  64  0.084  0.834  0.736- 203 1.99 204 2.33 144 2.34
  65  0.214  0.848  0.858-  62 2.50 178 2.50 187 2.51 144 2.61
  66  0.320  0.747  0.744- 197 2.19 144 2.51 179 2.66
  67  0.039  0.825  0.457- 188 2.05 128 2.50 141 2.61
  68  0.885  0.910  0.491- 188 2.15 207 2.41 116 2.69
  69  0.877  0.791  0.249- 107 2.40 188 2.69
  70  0.894  0.735  0.531- 206 2.20 141 2.35 188 2.48
  71  0.785  0.765  0.416- 206 2.21 118 2.31 188 2.36
  72  0.739  0.105  0.701- 183 2.29 150 2.46 113 2.51
  73  0.988  0.332  0.862- 189 2.26 133 2.31 134 2.51
  74  0.380  0.178  0.856- 184 2.35 182 2.37 175 2.50
  75  0.136  0.162  0.842- 184 2.29 189 2.48 198 2.55
  76  0.286  0.331  0.785- 181 2.45 184 2.56 208 2.59
  77  0.093  0.875  0.051- 155 2.07 201 2.29 178 2.35
  78  0.211  0.455  0.952- 160 2.21 181 2.30 205 2.42 159 2.57  25 2.60
  79  0.577  0.420  0.390- 190 2.34 132 2.43 130 2.60 138 2.62
  80  0.517  0.578  0.135- 177 2.16 165 2.49 158 2.64
  81  0.716  0.233  0.311- 148 2.37 161 2.44 132 2.48 147 2.56 105 2.78
  82  0.526  0.604  0.298- 120 2.50  83 2.55 157 2.56 130 2.57 177 2.65
  83  0.429  0.714  0.238- 177 2.14 170 2.31 157 2.43 171 2.49  82 2.55 111 2.69
  84  0.773  0.423  0.356- 129 2.38 164 2.41 130 2.54 132 2.64
  85  0.826  0.046  0.267- 207 2.38 161 2.44 153 2.46
  86  0.508  0.873  0.130- 191 2.24 193 2.27
  87  0.644  0.670  0.406- 120 2.27 118 2.40
  88  0.702  0.930  0.333- 114 2.33 191 2.49 147 2.54
  89  0.470  0.023  0.246- 194 2.12 191 2.47 145 2.51 105 2.63
  90  0.541  0.943  0.379- 145 2.37 114 2.48 191 2.50
  91  0.384  0.222  0.701- 139 2.17 192 2.37 184 2.44 173 2.69
  92  0.826  0.550  0.559- 206 2.15 135 2.36 136 2.63
  93  0.577  0.100  0.720- 192 2.35 150 2.60 175 2.61
  94  0.194  0.189  0.650- 200 2.16 184 2.30
  95  0.589  0.099  0.476- 113 2.40 145 2.42 147 2.47
  96  0.618  0.191  0.857- 175 2.44 183 2.47 173 2.54
  97  0.700  0.928  0.574- 113 1.94 116 2.00 115 2.10 114 2.15
  98  0.628  0.690  0.613- 117 2.02 137 2.03  30 2.74
  99  0.349  0.295  0.232- 122 2.00 124 2.08 121 2.20  32 2.40
 100  0.213  0.958  0.529- 126 1.96 128 2.06 125 2.12 127 2.30
 101  0.932  0.556  0.387- 129 1.88 131 2.22 154 2.43  55 2.73
 102  0.903  0.440  0.730- 134 2.04 135 2.08 133 2.11  38 2.72
 103  0.524  0.323  0.569- 140 1.96 138 2.05  40 2.10 139 2.11
 104  0.100  0.602  0.516- 143 2.11 131 2.18 141 2.19  18 2.76
 105  0.609  0.110  0.257- 147 1.98 148 2.09 146 2.25  89 2.63  81 2.78
 106  0.788  0.004  0.852- 152 2.00 150 2.02 151 2.06 149 2.17
 107  0.909  0.845  0.117- 156 1.93 155 2.08 153 2.16  69 2.40   4 2.55
 108  0.341  0.526  0.050- 160 1.93 158 2.11 159 2.31  54 2.57
 109  0.844  0.260  0.185- 164 1.87 161 1.95 163 1.95 162 2.12
 110  0.668  0.469  0.984- 167 1.97 168 1.98 166 2.00 165 2.03
 111  0.270  0.663  0.252- 170 1.95 169 2.06 157 2.09 172 2.26  83 2.69
 112  0.510  0.413  0.844- 176 1.97 173 2.22 166 2.24  25 2.78
 113  0.696  0.048  0.565-  97 1.94  37 2.25  95 2.40  72 2.51
 114  0.657  0.881  0.459-  97 2.15  88 2.33  90 2.48  14 2.60
 115  0.605  0.875  0.646-  97 2.10 119 2.13  14 2.51  15 2.67
 116  0.798  0.871  0.625-  97 2.00  15 2.66  68 2.69
 117  0.683  0.677  0.723-  98 2.02  30 2.46  17 2.58
 118  0.714  0.738  0.296-   1 2.13   5 2.25  71 2.31  87 2.40  55 2.42   3 2.57
 119  0.503  0.958  0.630- 115 2.13  63 2.24  61 2.40  47 2.62
 120  0.504  0.690  0.423- 171 2.08  87 2.27  82 2.50  14 2.59
 121  0.420  0.401  0.185- 190 2.16  99 2.20  34 2.68  54 2.69
 122  0.344  0.285  0.353-  99 2.00  49 2.25  43 2.39  51 2.65
 123  0.122  0.136  0.263-  50 2.31  36 2.51  51 2.60
 124  0.238  0.341  0.184-  99 2.08  51 2.44  54 2.47  31 2.50
 125  0.245  0.968  0.404- 100 2.12   9 2.23  12 2.49  45 2.54
 126  0.280  0.048  0.577- 100 1.96  47 2.60
 127  0.279  0.835  0.560-  63 2.25 100 2.30  12 2.33
 128  0.084  0.954  0.529- 100 2.06  67 2.50
 129  0.895  0.456  0.432- 101 1.88  48 2.28  84 2.38
 130  0.665  0.525  0.306-  55 2.39   3 2.51  84 2.54  82 2.57  79 2.60 190 2.76
 131  0.067  0.588  0.388- 104 2.18 101 2.22  53 2.25  58 2.36
 132  0.677  0.315  0.433- 140 2.10  79 2.43  81 2.48  84 2.64
 133  0.869  0.411  0.850- 102 2.11  42 2.26  20 2.26  73 2.31
 134  0.027  0.440  0.757- 102 2.04  26 2.33  29 2.38  73 2.51  21 2.53
 135  0.867  0.559  0.696- 102 2.08  92 2.36  24 2.60  23 2.62
 136  0.674  0.490  0.550- 174 2.12 137 2.15  92 2.63
 137  0.579  0.578  0.583-  98 2.03 136 2.15
 138  0.477  0.429  0.516- 103 2.05  13 2.34  49 2.54  79 2.62
 139  0.423  0.240  0.576- 192 2.04 103 2.11  91 2.17
 140  0.562  0.266  0.470- 103 1.96 132 2.10  43 2.55
 141  0.034  0.709  0.567- 104 2.19  18 2.29  70 2.35  67 2.61
 142  0.348  0.649  0.583- 179 1.98  16 2.46
 143  0.053  0.495  0.575- 104 2.11  60 2.39  21 2.46
 144  0.168  0.720  0.771-  27 2.23  18 2.29  64 2.34  11 2.41  66 2.51  65 2.61
 145  0.469  0.071  0.391-  90 2.37  95 2.42  43 2.42  47 2.44  45 2.47  89 2.51
 146  0.694  0.104  0.149- 162 2.04 105 2.25
 147  0.678  0.085  0.354- 105 1.98  95 2.47  88 2.54  81 2.56
 148  0.586  0.237  0.242- 105 2.09  81 2.37  43 2.53  35 2.65
 149  0.750  0.101  0.935- 106 2.17  39 2.48
 150  0.680  0.996  0.789- 106 2.02  15 2.31  72 2.46  39 2.56  93 2.60
 151  0.796  0.887  0.901- 106 2.06   4 2.12  15 2.61
 152  0.881  0.035  0.776- 106 2.00  41 2.29
 153  0.825  0.942  0.158- 107 2.16   4 2.34  85 2.46
 154  0.918  0.580  0.241- 186 2.26  55 2.43 101 2.43
 155  0.972  0.910  0.026-  77 2.07 107 2.08   4 2.29  19 2.48
 156  0.840  0.767  0.058- 107 1.93  59 2.54   6 2.57
 157  0.368  0.583  0.282- 111 2.09  83 2.43  82 2.56  54 2.59
 158  0.449  0.567  0.989- 108 2.11  28 2.55   2 2.60  80 2.64
 159  0.244  0.608  0.983- 108 2.31  10 2.47  78 2.57  27 2.64
 160  0.331  0.415  0.006- 108 1.93  78 2.21  34 2.28  25 2.35  31 2.52
 161  0.860  0.193  0.282- 109 1.95  50 2.31  81 2.44  85 2.44
 162  0.743  0.215  0.113- 146 2.04 109 2.12
 163  0.949  0.261  0.125- 109 1.95  36 2.45  52 2.52  50 2.66
 164  0.818  0.364  0.228- 109 1.87  84 2.41  57 2.42  52 2.46
 165  0.649  0.504  0.101- 110 2.03  35 2.38  80 2.49   3 2.53  57 2.60
 166  0.593  0.377  0.948- 110 2.00 112 2.24
 167  0.772  0.406  0.996- 110 1.97  57 2.38  42 2.59  20 2.61
 168  0.712  0.564  0.921- 110 1.98  24 2.44  17 2.63
 169  0.169  0.590  0.221- 111 2.06  53 2.43  54 2.44  56 2.46  58 2.53
 170  0.303  0.758  0.186- 111 1.95  83 2.31  10 2.47   8 2.65
 171  0.456  0.794  0.365- 120 2.08  12 2.35   5 2.36  83 2.49
 172  0.241  0.708  0.379-  16 2.07 111 2.26
 173  0.505  0.283  0.798- 112 2.22  40 2.23  96 2.54  91 2.69
 174  0.708  0.415  0.652- 136 2.12  38 2.42  17 2.58
 175  0.506  0.088  0.863-  96 2.44  61 2.45  74 2.50  93 2.61  39 2.63  33 2.66
 176  0.557  0.478  0.753- 112 1.97  17 2.54
 177  0.543  0.705  0.171-  83 2.14  80 2.16   3 2.33   5 2.35  82 2.65
 178  0.229  0.896  0.002-  62 2.19  77 2.35  65 2.50   7 2.56  10 2.64
 179  0.433  0.725  0.628- 142 1.98  14 2.62  66 2.66
 180  0.973  0.613  0.918-  59 2.28  24 2.37  11 2.43  26 2.52  20 2.56   6 2.60
 181  0.229  0.469  0.813-  25 2.27  78 2.30  27 2.31  21 2.44  76 2.45  26 2.62
 182  0.379  0.180  0.001-  33 2.23  74 2.37  31 2.43  32 2.45  34 2.50
 183  0.724  0.235  0.756-  72 2.29  38 2.33  42 2.33  96 2.47  41 2.66
 184  0.260  0.174  0.773-  75 2.29  94 2.30  74 2.35  91 2.44  76 2.56
 185  0.059  0.351  0.338-  48 2.30  51 2.40  60 2.46  53 2.48  50 2.61  52 2.62
 186  0.966  0.518  0.127- 154 2.26  52 2.51  56 2.55  59 2.64  57 2.68
 187  0.337  0.913  0.787-  44 2.18  62 2.19  61 2.42  65 2.51  63 2.61
 188  0.922  0.816  0.405-  67 2.05  68 2.15  71 2.36  70 2.48  69 2.69
 189  0.002  0.216  0.787-  73 2.26  41 2.26  75 2.48  29 2.49  46 2.69
 190  0.528  0.433  0.256-  35 2.14 121 2.16  79 2.34 130 2.76
 191  0.585  0.920  0.234-  86 2.24  89 2.47  88 2.49   5 2.49  90 2.50
 192  0.474  0.135  0.625- 139 2.04  93 2.35  91 2.37
 193  0.531  0.936  0.008-  39 2.25  86 2.27  33 2.45  22 2.61
 194  0.370  0.013  0.161-  89 2.12  32 2.63
 195  0.245  0.456  0.434-  60 2.35  49 2.37  53 2.62
 196  0.533  0.762  0.891-  28 2.08  22 2.26   2 2.49
 197  0.383  0.636  0.789-  66 2.19  27 2.45  28 2.49  30 2.54
 198  0.149  0.164  0.996-   7 2.43  36 2.46  75 2.55
 199  0.876  0.213  0.550-  46 2.31  37 2.40
 200  0.101  0.252  0.578-  94 2.16  29 2.17  46 2.63
 201  0.087  0.734  0.067-  10 2.27  77 2.29  59 2.42  56 2.52
 202  0.080  0.851  0.277-   8 2.17  58 2.47
 203  0.106  0.948  0.775-  64 1.99  44 2.58
 204  0.948  0.798  0.773-  64 2.33  19 2.47   6 2.52
 205  0.065  0.423  0.973-  26 2.23  78 2.42  20 2.48
 206  0.780  0.664  0.507-  92 2.15  70 2.20  71 2.21
 207  0.894  0.022  0.394-  85 2.38  68 2.41  37 2.55
 208  0.276  0.379  0.635-  13 2.42  21 2.52  76 2.59
 

IMPORTANT INFORMATION: All symmetrisations will be switched off!
NOSYMM: (Re-)initialisation of all symmetry stuff for point group C_1.

 
 
 KPOINTS: Regular mesh centered at Gamma          

Automatic generation of k-mesh.
Space group operators:
 irot       det(A)        alpha          n_x          n_y          n_z        tau_x        tau_y        tau_z
    1     1.000000     0.000001     1.000000     0.000000     0.000000     0.000000     0.000000     0.000000
 
 Subroutine IBZKPT returns following result:
 ===========================================
 
 Found      1 irreducible k-points:
 
 Following reciprocal coordinates:
            Coordinates               Weight
  0.000000  0.000000  0.000000      1.000000
 
 Following cartesian coordinates:
            Coordinates               Weight
  0.000000  0.000000  0.000000      1.000000
 


--------------------------------------------------------------------------------------------------------




 Dimension of arrays:
   k-points           NKPTS =      1   k-points in BZ     NKDIM =      1   number of bands    NBANDS=    592
   number of dos      NEDOS =    301   number of ions     NIONS =    208
   non local maximal  LDIM  =      4   non local SUM 2l+1 LMDIM =      8
   total plane-waves  NPLWV = 729000
   max r-space proj   IRMAX =      1   max aug-charges    IRDMAX=   5618
   dimension x,y,z NGX =    90 NGY =   90 NGZ =   90
   dimension x,y,z NGXF=   180 NGYF=  180 NGZF=  180
   support grid    NGXF=   180 NGYF=  180 NGZF=  180
   ions per type =              96  16  80  16
   NGX,Y,Z   is equivalent  to a cutoff of   9.34,  9.29,  9.11 a.u.
   NGXF,Y,Z  is equivalent  to a cutoff of  18.67, 18.59, 18.22 a.u.

 SYSTEM =  LPSC                                    
 POSCAR =  New POSCAR file                         

 Startparameter for this run:
   NWRITE =      2    write-flag & timer
   PREC   = normal    normal or accurate (medium, high low for compatibility)
   ISTART =      0    job   : 0-new  1-cont  2-samecut
   ICHARG =      2    charge: 1-file 2-atom 10-const
   ISPIN  =      1    spin polarized calculation?
   LNONCOLLINEAR =      F non collinear calculations
   LSORBIT =      F    spin-orbit coupling
   INIWAV =      1    electr: 0-lowe 1-rand  2-diag
   LASPH  =      F    aspherical Exc in radial PAW
   METAGGA=      F    non-selfconsistent MetaGGA calc.

 Electronic Relaxation 1
   ENCUT  =  500.0 eV  36.75 Ry    6.06 a.u.  29.22 29.35 29.95*2*pi/ulx,y,z
   ENINI  =  500.0     initial cutoff
   ENAUG  =  628.9 eV  augmentation charge cutoff
   NELM   =    100;   NELMIN=  2; NELMDL=-12     # of ELM steps 
   EDIFF  = 0.1E-05   stopping-criterion for ELM
   LREAL  =      F    real-space projection
   NLSPLINE    = F    spline interpolate recip. space projectors
   LCOMPAT=      F    compatible to vasp.4.4
   GGA_COMPAT  = T    GGA compatible to vasp.4.4-vasp.4.6
   LMAXPAW     = -100 max onsite density
   LMAXMIX     =    2 max onsite mixed and CHGCAR
   VOSKOWN=      0    Vosko Wilk Nusair interpolation
   ROPT   =    0.00000   0.00000   0.00000   0.00000
 Ionic relaxation
   EDIFFG = -.1E-01   stopping-criterion for IOM
   NSW    =      1    number of steps for IOM
   NBLOCK =      1;   KBLOCK =      1    inner block; outer block 
   IBRION =      2    ionic relax: 0-MD 1-quasi-New 2-CG
   NFREE  =      1    steps in history (QN), initial steepest desc. (CG)
   ISIF   =      2    stress and relaxation
   IWAVPR =     11    prediction:  0-non 1-charg 2-wave 3-comb
   ISYM   =      0    0-nonsym 1-usesym 2-fastsym
   LCORR  =      T    Harris-Foulkes like correction to forces

   POTIM  = 0.5000    time-step for ionic-motion
   TEIN   =    0.0    initial temperature
   TEBEG  =    0.0;   TEEND  =   0.0 temperature during run
   SMASS  =  -3.00    Nose mass-parameter (am)
   estimated Nose-frequenzy (Omega)   =  0.10E-29 period in steps =****** mass=  -0.587E-26a.u.
   SCALEE = 1.0000    scale energy and forces
   NPACO  =    256;   APACO  = 16.0  distance and # of slots for P.C.
   PSTRESS=    0.0 pullay stress

  Mass of Ions in am
   POMASS =   7.01 30.97 32.07 35.45
  Ionic Valenz
   ZVAL   =   3.00  5.00  6.00  7.00
  Atomic Wigner-Seitz radii
   RWIGS  =  -1.00 -1.00 -1.00 -1.00
  virtual crystal weights 
   VCA    =   1.00  1.00  1.00  1.00
   NELECT =     960.0000    total number of electrons
   NUPDOWN=      -1.0000    fix difference up-down

 DOS related values:
   EMIN   =  10.00;   EMAX   =-10.00  energy-range for DOS
   EFERMI =   0.00
   ISMEAR =     0;   SIGMA  =   0.05  broadening in eV -4-tet -1-fermi 0-gaus

 Electronic relaxation 2 (details)
   IALGO  =     48    algorithm
   LDIAG  =      T    sub-space diagonalisation (order eigenvalues)
   LSUBROT=      F    optimize rotation matrix (better conditioning)
   TURBO    =      0    0=normal 1=particle mesh
   IRESTART =      0    0=no restart 2=restart with 2 vectors
   NREBOOT  =      0    no. of reboots
   NMIN     =      0    reboot dimension
   EREF     =   0.00    reference energy to select bands
   IMIX   =      4    mixing-type and parameters
     AMIX     =   0.40;   BMIX     =  1.00
     AMIX_MAG =   1.60;   BMIX_MAG =  1.00
     AMIN     =   0.10
     WC   =   100.;   INIMIX=   1;  MIXPRE=   1;  MAXMIX= -45

 Intra band minimization:
   WEIMIN = 0.0010     energy-eigenvalue tresh-hold
   EBREAK =  0.42E-09  absolut break condition
   DEPER  =   0.30     relativ break condition  

   TIME   =   0.40     timestep for ELM

  volume/ion in A,a.u.               =      20.38       137.50
  Fermi-wavevector in a.u.,A,eV,Ry     =   0.997951  1.885854 13.550121  0.995906
  Thomas-Fermi vector in A             =   2.130142
 
 Write flags
   LWAVE        =      F    write WAVECAR
   LDOWNSAMPLE  =      F    k-point downsampling of WAVECAR
   LCHARG       =      F    write CHGCAR
   LVTOT        =      F    write LOCPOT, total local potential
   LVHAR        =      F    write LOCPOT, Hartree potential only
   LELF         =      F    write electronic localiz. function (ELF)
   LORBIT       =     11    0 simple, 1 ext, 2 COOP (PROOUT), +10 PAW based schemes


 Dipole corrections
   LMONO  =      F    monopole corrections only (constant potential shift)
   LDIPOL =      F    correct potential (dipole corrections)
   IDIPOL =      0    1-x, 2-y, 3-z, 4-all directions 
   EPSILON=  1.0000000 bulk dielectric constant

 Exchange correlation treatment:
   GGA     =    --    GGA type
   LEXCH   =     8    internal setting for exchange type
   VOSKOWN=      0    Vosko Wilk Nusair interpolation
   LHFCALC =     F    Hartree Fock is set to
   LHFONE  =     F    Hartree Fock one center treatment
   AEXX    =    0.0000 exact exchange contribution

 Linear response parameters
   LEPSILON=     F    determine dielectric tensor
   LRPA    =     F    only Hartree local field effects (RPA)
   LNABLA  =     F    use nabla operator in PAW spheres
   LVEL    =     F    velocity operator in full k-point grid
   LINTERFAST=   F  fast interpolation
   KINTER  =     0    interpolate to denser k-point grid
   CSHIFT  =0.1000    complex shift for real part using Kramers Kronig
   OMEGAMAX=  -1.0    maximum frequency
   DEG_THRESHOLD= 0.2000000E-02 threshold for treating states as degnerate
   RTIME   =   -0.100 relaxation time in fs
  (WPLASMAI=    0.000 imaginary part of plasma frequency in eV, 0.658/RTIME)
   DFIELD  = 0.0000000 0.0000000 0.0000000 field for delta impulse in time
 
 Orbital magnetization related:
   ORBITALMAG=     F  switch on orbital magnetization
   LCHIMAG   =     F  perturbation theory with respect to B field
   DQ        =  0.001000  dq finite difference perturbation B field
   LLRAUG    =     F  two centre corrections for induced B field



--------------------------------------------------------------------------------------------------------


 conjugate gradient relaxation of ions
 charge density and potential will be updated during run
 non-spin polarized calculation
 RMM-DIIS sequential band-by-band
 perform sub-space diagonalisation
    before iterative eigenvector-optimisation
 modified Broyden-mixing scheme, WC =      100.0
 initial mixing is a Kerker type mixing with AMIX =  0.4000 and BMIX =      1.0000
 Hartree-type preconditioning will be used
 using additional bands          112
 reciprocal scheme for non local part
 use partial core corrections
 calculate Harris-corrections to forces 
   (improved forces if not selfconsistent)
 use gradient corrections 
 use of overlap-Matrix (Vanderbilt PP)
 Gauss-broadening in eV      SIGMA  =   0.05


--------------------------------------------------------------------------------------------------------


  energy-cutoff  :      500.00
  volume of cell :     4238.07
      direct lattice vectors                 reciprocal lattice vectors
    16.026082000  0.000000000  0.000000000     0.062398283  0.000000000  0.000000000
     0.000000000 16.100000000  0.000000000     0.000000000  0.062111801  0.000000000
     0.000000000  0.000000000 16.425367000     0.000000000  0.000000000  0.060881440

  length of vectors
    16.026082000 16.100000000 16.425367000     0.062398283  0.062111801  0.060881440


 
 k-points in units of 2pi/SCALE and weight: Regular mesh centered at Gamma          
   0.00000000  0.00000000  0.00000000       1.000
 
 k-points in reciprocal lattice and weights: Regular mesh centered at Gamma          
   0.00000000  0.00000000  0.00000000       1.000
 
 position of ions in fractional coordinates (direct lattice) 
   0.71802952  0.81586957  0.19165173
   0.57131431  0.67118634  0.00819428
   0.66529673  0.62947826  0.19255704
   0.83145712  0.93743478  0.01569992
   0.57953404  0.77656522  0.28966902
   0.90513701  0.75948447  0.91517590
   0.23383070  0.04947093  0.04386252
   0.21559106  0.85395652  0.28514858
   0.11748598  0.99976398  0.35941358
   0.22834464  0.74149068  0.05521837
   0.10022974  0.69226708  0.89918234
   0.33477490  0.84463354  0.42917641
   0.38116116  0.48402298  0.60914316
   0.53119222  0.80666460  0.52829809
   0.71577070  0.85932919  0.76561455
   0.33777002  0.64416770  0.43414677
   0.70744677  0.52495528  0.76596766
   0.15975458  0.71080124  0.63204676
   0.97147887  0.90762733  0.87560905
   0.91860256  0.47105776  0.96504997
   0.15957862  0.47368944  0.68093456
   0.50384742  0.89504969  0.85608437
   0.00611486  0.62944720  0.74494530
   0.84463564  0.58571553  0.85089727
   0.35322046  0.47687578  0.87844613
   0.08108158  0.51076273  0.86894253
   0.23561529  0.61150745  0.82234388
   0.42037723  0.70537267  0.91946804
   0.06743882  0.31542857  0.68972584
   0.53461663  0.64478882  0.74589505
   0.27404390  0.27650559  0.05035407
   0.35048928  0.17372857  0.14671940
   0.46274442  0.07106832  0.01805628
   0.42997783  0.32066646  0.04180704
   0.62965483  0.38507516  0.18569692
   0.06628570  0.16371615  0.12292632
   0.79660768  0.10432422  0.48631973
   0.81328674  0.30952050  0.67103523
   0.62700915  0.00638783  0.93610085
   0.57692392  0.31071242  0.68529976
   0.86915816  0.17359752  0.80636250
   0.76763616  0.31483665  0.86586193
   0.47584369  0.21521925  0.34966890
   0.25121299  0.00332529  0.73359700
   0.32499459  0.08818944  0.34150226
   0.97791837  0.16018634  0.63456116
   0.41025374  0.98963354  0.50266335
   0.94712482  0.32458075  0.42196074
   0.38068256  0.41339379  0.39445694
   0.00181832  0.21553168  0.27204750
   0.18551634  0.27683602  0.30854044
   0.96803448  0.38892360  0.21139741
   0.13292769  0.48504596  0.32131824
   0.27780776  0.48959814  0.18901191
   0.78825255  0.60796957  0.31265177
   0.10625304  0.57946398  0.08416555
   0.80621078  0.46871366  0.12299269
   0.08841899  0.69973292  0.29853823
   0.95645336  0.66112422  0.04777988
   0.10957700  0.41230807  0.46689977
   0.43750681  0.01786820  0.74819028
   0.32443176  0.94019876  0.91688058
   0.38322966  0.88698758  0.63672854
   0.08406858  0.83354037  0.73635493
   0.21444231  0.84811801  0.85811172
   0.32007324  0.74737267  0.74412340
   0.03854074  0.82517391  0.45656027
   0.88549403  0.91041615  0.49108126
   0.87691427  0.79127329  0.24923948
   0.89441075  0.73517391  0.53062985
   0.78475201  0.76454037  0.41627319
   0.73948829  0.10466584  0.70059926
   0.98835760  0.33244969  0.86220905
   0.37964051  0.17778447  0.85627310
   0.13625726  0.16186025  0.84165547
   0.28604434  0.33108571  0.78518185
   0.09339401  0.87512422  0.05125876
   0.21137668  0.45520932  0.95164997
   0.57678227  0.42013416  0.39013679
   0.51730922  0.57794037  0.13523229
   0.71620749  0.23308012  0.31137143
   0.52568369  0.60432050  0.29768528
   0.42890333  0.71401863  0.23815845
   0.77317088  0.42250932  0.35633237
   0.82571648  0.04587646  0.26728231
   0.50755887  0.87321739  0.13005859
   0.64365077  0.66957143  0.40647920
   0.70184965  0.93039130  0.33322300
   0.47040568  0.02255286  0.24567122
   0.54114287  0.94278882  0.37882624
   0.38428981  0.22238882  0.70118372
   0.82616575  0.54995839  0.55881065
   0.57746990  0.09977143  0.72000218
   0.19409360  0.18881056  0.64955017
   0.58936426  0.09945776  0.47577080
   0.61833891  0.19053230  0.85657142
   0.70007754  0.92760870  0.57427819
   0.62767681  0.69030435  0.61346574
   0.34921511  0.29462733  0.23189436
   0.21290606  0.95819255  0.52853187
   0.93164380  0.55635466  0.38650582
   0.90276588  0.44002733  0.72973103
   0.52420423  0.32335031  0.56913127
   0.10010245  0.60209130  0.51606214
   0.60864034  0.10990745  0.25693490
   0.78843974  0.00412318  0.85162176
   0.90861884  0.84537888  0.11678826
   0.34072208  0.52610248  0.04989198
   0.84367470  0.26007205  0.18484579
   0.66789874  0.46931118  0.98380146
   0.26957805  0.66290062  0.25154141
   0.51038800  0.41319938  0.84429164
   0.69618388  0.04790894  0.56454385
   0.65688544  0.88058385  0.45891821
   0.60487211  0.87457764  0.64553809
   0.79824875  0.87147826  0.62547765
   0.68288681  0.67720497  0.72333239
   0.71444162  0.73827329  0.29635015
   0.50293890  0.95826708  0.63011073
   0.50447015  0.68984472  0.42312662
   0.42028114  0.40079876  0.18455417
   0.34431934  0.28536335  0.35297476
   0.12174591  0.13588571  0.26336398
   0.23840450  0.34144783  0.18448355
   0.24474354  0.96763975  0.40377241
   0.27953682  0.04755379  0.57740689
   0.27911126  0.83549068  0.56008551
   0.08416031  0.95397516  0.52896779
   0.89499105  0.45571056  0.43245183
   0.66464779  0.52492857  0.30574233
   0.06659457  0.58760807  0.38829148
   0.67689657  0.31528882  0.43321589
   0.86857162  0.41117205  0.85028237
   0.02661374  0.43964410  0.75748079
   0.86693678  0.55927950  0.69628886
   0.67369554  0.48984410  0.55022150
   0.57901738  0.57810373  0.58263965
   0.47722456  0.42902298  0.51637933
   0.42338483  0.23964224  0.57555305
   0.56151965  0.26610994  0.47045585
   0.03361938  0.70910559  0.56700773
   0.34803890  0.64855280  0.58336048
   0.05314749  0.49519503  0.57469949
   0.16822140  0.72049689  0.77114259
   0.46940793  0.07099441  0.39105367
   0.69411226  0.10420621  0.14865604
   0.67758296  0.08475714  0.35366942
   0.58637726  0.23718571  0.24210722
   0.74957809  0.10076894  0.93539462
   0.68007265  0.99636646  0.78938267
   0.79615841  0.88712422  0.90128275
   0.88116359  0.03532447  0.77642710
   0.82463699  0.94173292  0.15772981
   0.91750435  0.58033602  0.24079888
   0.97151631  0.91021739  0.02629323
   0.83989337  0.76734161  0.05805484
   0.36801447  0.58343789  0.28228045
   0.44897062  0.56712671  0.98926252
   0.24392612  0.60808447  0.98305262
   0.33074834  0.41532484  0.00610032
   0.85969234  0.19268571  0.28218852
   0.74310115  0.21545280  0.11326322
   0.94887821  0.26100311  0.12510832
   0.81774822  0.36409565  0.22826948
   0.64937269  0.50374658  0.10132924
   0.59325729  0.37666460  0.94838064
   0.77230979  0.40632112  0.99563072
   0.71240120  0.56432547  0.92107531
   0.16877800  0.58989938  0.22086691
   0.30281263  0.75834783  0.18560438
   0.45552619  0.79415528  0.36522411
   0.24134346  0.70849068  0.37894618
   0.50478651  0.28342174  0.79848444
   0.70750917  0.41523230  0.65152882
   0.50647002  0.08773106  0.86261086
   0.55660329  0.47770311  0.75318865
   0.54295679  0.70452795  0.17070364
   0.22932867  0.89610559  0.00229931
   0.43324750  0.72507453  0.62804685
   0.97293275  0.61274596  0.91806168
   0.22858613  0.46879938  0.81336387
   0.37928609  0.18028634  0.00062743
   0.72372649  0.23479876  0.75551432
   0.26011473  0.17443168  0.77318820
   0.05923088  0.35107267  0.33846489
   0.96590670  0.51829441  0.12659017
   0.33693825  0.91300621  0.78678912
   0.92216550  0.81638509  0.40494133
   0.00226674  0.21579317  0.78714223
   0.52823454  0.43343416  0.25641497
   0.58505005  0.92029193  0.23413115
   0.47419201  0.13514720  0.62485666
   0.53089832  0.93550932  0.00794113
   0.37025269  0.01257714  0.16149289
   0.24514289  0.45647950  0.43352212
   0.53344979  0.76229814  0.89138952
   0.38289458  0.63590683  0.78922437
   0.14885298  0.16439627  0.99641000
   0.87587222  0.21291304  0.54986838
   0.10067339  0.25164720  0.57770764
   0.08715855  0.73367702  0.06663717
   0.08043700  0.85103727  0.27684556
   0.10602841  0.94837267  0.77528861
   0.94844766  0.79769565  0.77284118
   0.06549074  0.42330186  0.97334203
   0.78004094  0.66368323  0.50721302
   0.89426099  0.02232988  0.39401129
   0.27586094  0.37948944  0.63521868
 
 position of ions in cartesian coordinates  (Angst):
  11.50720000 13.13550000  3.14795000
   9.15593000 10.80610000  0.13459400
  10.66210000 10.13460000  3.16282000
  13.32500000 15.09270000  0.25787700
   9.28766000 12.50270000  4.75792000
  14.50580000 12.22770000 15.03210000
   3.74739000  0.79648200  0.72045800
   3.45508000 13.74870000  4.68367000
   1.88284000 16.09620000  5.90350000
   3.65947000 11.93800000  0.90698200
   1.60629000 11.14550000 14.76940000
   5.36513000 13.59860000  7.04938000
   6.10852000  7.79277000 10.00540000
   8.51293000 12.98730000  8.67749000
  11.47100000 13.83520000 12.57550000
   5.41313000 10.37110000  7.13102000
  11.33760000  8.45178000 12.58130000
   2.56024000 11.44390000 10.38160000
  15.56900000 14.61280000 14.38220000
  14.72160000  7.58403000 15.85130000
   2.55742000  7.62640000 11.18460000
   8.07470000 14.41030000 14.06150000
   0.09799730 10.13410000 12.23600000
  13.53620000  9.43002000 13.97630000
   5.66074000  7.67770000 14.42880000
   1.29942000  8.22328000 14.27270000
   3.77599000  9.84527000 13.50730000
   6.73700000 11.35650000 15.10260000
   1.08078000  5.07840000 11.32900000
   8.56781000 10.38110000 12.25160000
   4.39185000  4.45174000  0.82708400
   5.61697000  2.79703000  2.40992000
   7.41598000  1.14420000  0.29658100
   6.89086000  5.16273000  0.68669600
  10.09090000  6.19971000  3.05014000
   1.06230000  2.63583000  2.01911000
  12.76650000  1.67962000  7.98798000
  13.03380000  4.98328000 11.02200000
  10.04850000  0.10284400 15.37580000
   9.24583000  5.00247000 11.25630000
  13.92920000  2.79492000 13.24480000
  12.30220000  5.06887000 14.22210000
   7.62591000  3.46503000  5.74344000
   4.02596000  0.05353720 12.04960000
   5.20839000  1.41985000  5.60930000
  15.67220000  2.57900000 10.42290000
   6.57476000 15.93310000  8.25643000
  15.17870000  5.22575000  6.93086000
   6.10085000  6.65564000  6.47910000
   0.02914050  3.47006000  4.46848000
   2.97310000  4.45706000  5.06789000
  15.51380000  6.26167000  3.47228000
   2.13031000  7.80924000  5.27777000
   4.45217000  7.88253000  3.10459000
  12.63260000  9.78831000  5.13542000
   1.70282000  9.32937000  1.38245000
  12.92040000  7.54629000  2.02020000
   1.41701000 11.26570000  4.90360000
  15.32820000 10.64410000  0.78480200
   1.75609000  6.63816000  7.66900000
   7.01152000  0.28767800 12.28930000
   5.19937000 15.13720000 15.06010000
   6.14167000 14.28050000 10.45850000
   1.34729000 13.42000000 12.09490000
   3.43667000 13.65470000 14.09480000
   5.12952000 12.03270000 12.22250000
   0.61765700 13.28530000  7.49917000
  14.19100000 14.65770000  8.06619000
  14.05350000 12.73950000  4.09385000
  14.33390000 11.83630000  8.71579000
  12.57650000 12.30910000  6.83744000
  11.85110000  1.68512000 11.50760000
  15.83950000  5.35244000 14.16210000
   6.08415000  2.86233000 14.06460000
   2.18367000  2.60595000 13.82450000
   4.58417000  5.33048000 12.89690000
   1.49674000 14.08950000  0.84194400
   3.38754000  7.32887000 15.63120000
   9.24356000  6.76416000  6.40814000
   8.29044000  9.30484000  2.22124000
  11.47800000  3.75259000  5.11439000
   8.42465000  9.72956000  4.88959000
   6.87364000 11.49570000  3.91184000
  12.39090000  6.80240000  5.85289000
  13.23300000  0.73861100  4.39021000
   8.13418000 14.05880000  2.13626000
  10.31520000 10.78010000  6.67657000
  11.24790000 14.97930000  5.47331000
   7.53876000  0.36310100  4.03524000
   8.67240000 15.17890000  6.22236000
   6.15866000  3.58046000 11.51720000
  13.24020000  8.85433000  9.17867000
   9.25458000  1.60632000 11.82630000
   3.11056000  3.03985000 10.66910000
   9.44520000  1.60127000  7.81471000
   9.90955000  3.06757000 14.06950000
  11.21950000 14.93450000  9.43273000
  10.05920000 11.11390000 10.07640000
   5.59655000  4.74350000  3.80895000
   3.41205000 15.42690000  8.68133000
  14.93060000  8.95731000  6.34850000
  14.46780000  7.08444000 11.98610000
   8.40094000  5.20594000  9.34819000
   1.60425000  9.69367000  8.47651000
   9.75412000  1.76951000  4.22025000
  12.63560000  0.06638320 13.98820000
  14.56160000 13.61060000  1.91829000
   5.46044000  8.47025000  0.81949400
  13.52080000  4.18716000  3.03616000
  10.70380000  7.55591000 16.15930000
   4.32028000 10.67270000  4.13166000
   8.17952000  6.65251000 13.86780000
  11.15710000  0.77133400  9.27284000
  10.52730000 14.17740000  7.53790000
   9.69373000 14.08070000 10.60320000
  12.79280000 14.03080000 10.27370000
  10.94400000 10.90300000 11.88100000
  11.44970000 11.88620000  4.86766000
   8.06014000 15.42810000 10.34980000
   8.08468000 11.10650000  6.95001000
   6.73546000  6.45286000  3.03137000
   5.51809000  4.59435000  5.79774000
   1.95111000  2.18776000  4.32585000
   3.82069000  5.49731000  3.03021000
   3.92228000 15.57900000  6.63211000
   4.47988000  0.76561600  9.48412000
   4.47306000 13.45140000  9.19961000
   1.34876000 15.35900000  8.68849000
  14.34320000  7.33694000  7.10318000
  10.65170000  8.45135000  5.02193000
   1.06725000  9.46049000  6.37783000
  10.84800000  5.07615000  7.11573000
  13.91980000  6.61987000 13.96620000
   0.42651400  7.07827000 12.44190000
  13.89360000  9.00440000 11.43680000
  10.79670000  7.88649000  9.03759000
   9.27938000  9.30747000  9.57007000
   7.64804000  6.90727000  8.48172000
   6.78520000  3.85824000  9.45367000
   8.99896000  4.28437000  7.72741000
   0.53878700 11.41660000  9.31331000
   5.57770000 10.44170000  9.58191000
   0.85174600  7.97264000  9.43965000
   2.69593000 11.60000000 12.66630000
   7.52277000  1.14301000  6.42320000
  11.12390000  1.67772000  2.44173000
  10.85900000  1.36459000  5.80915000
   9.39733000  3.81869000  3.97670000
  12.01280000  1.62238000 15.36420000
  10.89890000 16.04150000 12.96590000
  12.75930000 14.28270000 14.80390000
  14.12160000  0.56872400 12.75310000
  13.21570000 15.16190000  2.59077000
  14.70400000  9.34341000  3.95521000
  15.56960000 14.65450000  0.43187600
  13.46020000 12.35420000  0.95357200
   5.89783000  9.39335000  4.63656000
   7.19524000  9.13074000 16.24900000
   3.90918000  9.79016000 16.14700000
   5.30060000  6.68673000  0.10020000
  13.77750000  3.10224000  4.63505000
  11.90900000  3.46879000  1.86039000
  15.20680000  4.20215000  2.05495000
  13.10530000  5.86194000  3.74941000
  10.40690000  8.11032000  1.66437000
   9.50759000  6.06430000 15.57750000
  12.37710000  6.54177000 16.35360000
  11.41700000  9.08564000 15.12900000
   2.70485000  9.49738000  3.62782000
   4.85290000 12.20940000  3.04862000
   7.30030000 12.78590000  5.99894000
   3.86779000 11.40670000  6.22433000
   8.08975000  4.56309000 13.11540000
  11.33860000  6.68524000 10.70160000
   8.11673000  1.41247000 14.16870000
   8.92017000  7.69102000 12.37140000
   8.70147000 11.34290000  2.80387000
   3.67524000 14.42730000  0.03776700
   6.94326000 11.67370000 10.31590000
  15.59230000  9.86521000 15.07950000
   3.66334000  7.54767000 13.35980000
   6.07847000  2.90261000  0.01030570
  11.59850000  3.78026000 12.40960000
   4.16862000  2.80835000 12.69990000
   0.94923900  5.65227000  5.55941000
  15.47970000  8.34454000  2.07929000
   5.39980000 14.69940000 12.92330000
  14.77870000 13.14380000  6.65131000
   0.03632690  3.47427000 12.92910000
   8.46553000  6.97829000  4.21171000
   9.37606000 14.81670000  3.84569000
   7.59944000  2.17587000 10.26350000
   8.50822000 15.06170000  0.13043600
   5.93370000  0.20249200  2.65258000
   3.92868000  7.34932000  7.12076000
   8.54911000 12.27300000 14.64140000
   6.13630000 10.23810000 12.96330000
   2.38553000  2.64678000 16.36640000
  14.03680000  3.42790000  9.03179000
   1.61340000  4.05152000  9.48906000
   1.39681000 11.81220000  1.09454000
   1.28909000 13.70170000  4.54729000
   1.69922000 15.26880000 12.73440000
  15.19990000 12.84290000 12.69420000
   1.04956000  6.81516000 15.98750000
  12.50100000 10.68530000  8.33116000
  14.33150000  0.35951100  6.47178000
   4.42097000  6.10978000 10.43370000
 


--------------------------------------------------------------------------------------------------------


 k-point  1 :   0.0000 0.0000 0.0000  plane waves:  107615

 maximum and minimum number of plane-waves per node :     13456    13445

 maximum number of plane-waves:    107615
 maximum index in each direction: 
   IXMAX=   29   IYMAX=   29   IZMAX=   29
   IXMIN=  -29   IYMIN=  -29   IZMIN=  -29


 parallel 3D FFT for wavefunctions:
    minimum data exchange during FFTs selected (reduces bandwidth)
 parallel 3D FFT for charge:
    minimum data exchange during FFTs selected (reduces bandwidth)


 total amount of memory used by VASP MPI-rank0   111673. kBytes
=======================================================================

   base      :      30000. kBytes
   nonl-proj :      48226. kBytes
   fftplans  :       6264. kBytes
   grid      :      10964. kBytes
   one-center:         79. kBytes
   wavefun   :      16140. kBytes
 
     INWAV:  cpu time    0.0000: real time    0.0002
 Broyden mixing: mesh for mixing (old mesh)
   NGX = 59   NGY = 59   NGZ = 59
  (NGX  =180   NGY  =180   NGZ  =180)
  gives a total of 205379 points

 initial charge density was supplied:
 charge density of overlapping atoms calculated
 number of electron     960.0000000 magnetization 
 keeping initial charge density in first step


--------------------------------------------------------------------------------------------------------


 Maximum index for augmentation-charges          362 (set IRDMAX)


--------------------------------------------------------------------------------------------------------


 First call to EWALD:  gamma=   0.110
 Maximum number of real-space cells 3x 3x 3
 Maximum number of reciprocal cells 3x 3x 3

    FEWALD:  cpu time    0.0113: real time    0.0114


--------------------------------------- Iteration      1(   1)  ---------------------------------------


    POTLOK:  cpu time    0.0850: real time    0.0857
    SETDIJ:  cpu time    0.0077: real time    0.0078
    EDDIAG:  cpu time    0.9557: real time    0.9575
  RMM-DIIS:  cpu time    5.4451: real time    5.4508
    ORTHCH:  cpu time    0.2625: real time    0.2627
       DOS:  cpu time    0.0008: real time    0.0008
    --------------------------------------------
      LOOP:  cpu time    6.7568: real time    6.7654

 eigenvalue-minimisations  :   592
 total energy-change (2. order) :-0.3828343E+04  (-0.4701466E+05)
 number of electron     960.0000000 magnetization 
 augmentation part      960.0000000 magnetization 

 Free energy of the ion-electron system (eV)
  ---------------------------------------------------
  alpha Z        PSCENC =       804.77846877
  Ewald energy   TEWEN  =    -29710.58039243
  -Hartree energ DENC   =    -12528.58947304
  -exchange      EXHF   =         0.00000000
  -V(xc)+E(xc)   XCENC  =      2535.91809776
  PAW double counting   =     32496.41603574   -33591.34861692
  entropy T*S    EENTRO =        -0.02326399
  eigenvalues    EBANDS =    -14818.89892353
  atomic energy  EATOM  =     50983.98519967
  Solvation  Ediel_sol  =         0.00000000
  ---------------------------------------------------
  free energy    TOTEN  =     -3828.34286798 eV

  energy without entropy =    -3828.31960399  energy(sigma->0) =    -3828.33123598


--------------------------------------------------------------------------------------------------------




--------------------------------------- Iteration      1(   2)  ---------------------------------------


    EDDIAG:  cpu time    0.9532: real time    0.9567
  RMM-DIIS:  cpu time    5.4555: real time    5.4638
    ORTHCH:  cpu time    0.2615: real time    0.2619
       DOS:  cpu time    0.0008: real time    0.0008
    --------------------------------------------
      LOOP:  cpu time    6.6709: real time    6.6831

 eigenvalue-minimisations  :   592
 total energy-change (2. order) : 0.6212636E+04  (-0.7355404E+04)
 number of electron     960.0000000 magnetization 
 augmentation part      960.0000000 magnetization 

 Free energy of the ion-electron system (eV)
  ---------------------------------------------------
  alpha Z        PSCENC =       804.77846877
  Ewald energy   TEWEN  =    -29710.58039243
  -Hartree energ DENC   =    -12528.58947304
  -exchange      EXHF   =         0.00000000
  -V(xc)+E(xc)   XCENC  =      2535.91809776
  PAW double counting   =     32496.41603574   -33591.34861692
  entropy T*S    EENTRO =        -0.10188530
  eigenvalues    EBANDS =     -8606.18430385
  atomic energy  EATOM  =     50983.98519967
  Solvation  Ediel_sol  =         0.00000000
  ---------------------------------------------------
  free energy    TOTEN  =      2384.29313040 eV

  energy without entropy =     2384.39501569  energy(sigma->0) =     2384.34407304


--------------------------------------------------------------------------------------------------------




--------------------------------------- Iteration      1(   3)  ---------------------------------------


    EDDIAG:  cpu time    0.9514: real time    0.9527
  RMM-DIIS:  cpu time    5.4674: real time    5.4708
    ORTHCH:  cpu time    0.2608: real time    0.2608
       DOS:  cpu time    0.0007: real time    0.0007
    --------------------------------------------
      LOOP:  cpu time    6.6804: real time    6.6851

 eigenvalue-minimisations  :   592
 total energy-change (2. order) :-0.1597846E+04  (-0.2338034E+04)
 number of electron     960.0000000 magnetization 
 augmentation part      960.0000000 magnetization 

 Free energy of the ion-electron system (eV)
  ---------------------------------------------------
  alpha Z        PSCENC =       804.77846877
  Ewald energy   TEWEN  =    -29710.58039243
  -Hartree energ DENC   =    -12528.58947304
  -exchange      EXHF   =         0.00000000
  -V(xc)+E(xc)   XCENC  =      2535.91809776
  PAW double counting   =     32496.41603574   -33591.34861692
  entropy T*S    EENTRO =        -0.08707695
  eigenvalues    EBANDS =    -10204.04501456
  atomic energy  EATOM  =     50983.98519967
  Solvation  Ediel_sol  =         0.00000000
  ---------------------------------------------------
  free energy    TOTEN  =       786.44722804 eV

  energy without entropy =      786.53430499  energy(sigma->0) =      786.49076652


--------------------------------------------------------------------------------------------------------




--------------------------------------- Iteration      1(   4)  ---------------------------------------


    EDDIAG:  cpu time    0.9511: real time    0.9521
  RMM-DIIS:  cpu time    5.4620: real time    5.4651
    ORTHCH:  cpu time    0.2617: real time    0.2618
       DOS:  cpu time    0.0007: real time    0.0007
    --------------------------------------------
      LOOP:  cpu time    6.6754: real time    6.6797

 eigenvalue-minimisations  :   592
 total energy-change (2. order) :-0.8297604E+03  (-0.8326805E+03)
 number of electron     960.0000000 magnetization 
 augmentation part      960.0000000 magnetization 

 Free energy of the ion-electron system (eV)
  ---------------------------------------------------
  alpha Z        PSCENC =       804.77846877
  Ewald energy   TEWEN  =    -29710.58039243
  -Hartree energ DENC   =    -12528.58947304
  -exchange      EXHF   =         0.00000000
  -V(xc)+E(xc)   XCENC  =      2535.91809776
  PAW double counting   =     32496.41603574   -33591.34861692
  entropy T*S    EENTRO =        -0.00006929
  eigenvalues    EBANDS =    -11033.89243574
  atomic energy  EATOM  =     50983.98519967
  Solvation  Ediel_sol  =         0.00000000
  ---------------------------------------------------
  free energy    TOTEN  =       -43.31318549 eV

  energy without entropy =      -43.31311620  energy(sigma->0) =      -43.31315085


--------------------------------------------------------------------------------------------------------




--------------------------------------- Iteration      1(   5)  ---------------------------------------


    EDDIAG:  cpu time    0.9680: real time    0.9686
  RMM-DIIS:  cpu time    5.4693: real time    5.4723
    ORTHCH:  cpu time    0.2611: real time    0.2611
       DOS:  cpu time    0.0003: real time    0.0003
    --------------------------------------------
      LOOP:  cpu time    6.6987: real time    6.7024

 eigenvalue-minimisations  :   592
 total energy-change (2. order) :-0.3613999E+03  (-0.3313560E+03)
 number of electron     960.0000000 magnetization 
 augmentation part      960.0000000 magnetization 

 Free energy of the ion-electron system (eV)
  ---------------------------------------------------
  alpha Z        PSCENC =       804.77846877
  Ewald energy   TEWEN  =    -29710.58039243
  -Hartree energ DENC   =    -12528.58947304
  -exchange      EXHF   =         0.00000000
  -V(xc)+E(xc)   XCENC  =      2535.91809776
  PAW double counting   =     32496.41603574   -33591.34861692
  entropy T*S    EENTRO =        -0.00000000
  eigenvalues    EBANDS =    -11395.29245463
  atomic energy  EATOM  =     50983.98519967
  Solvation  Ediel_sol  =         0.00000000
  ---------------------------------------------------
  free energy    TOTEN  =      -404.71313508 eV

  energy without entropy =     -404.71313508  energy(sigma->0) =     -404.71313508


--------------------------------------------------------------------------------------------------------




--------------------------------------- Iteration      1(   6)  ---------------------------------------


    EDDIAG:  cpu time    0.9448: real time    0.9459
  RMM-DIIS:  cpu time    5.4567: real time    5.4597
    ORTHCH:  cpu time    0.2614: real time    0.2614
       DOS:  cpu time    0.0004: real time    0.0004
    --------------------------------------------
      LOOP:  cpu time    6.6633: real time    6.6673

 eigenvalue-minimisations  :   592
 total energy-change (2. order) :-0.1511073E+03  (-0.1392811E+03)
 number of electron     960.0000000 magnetization 
 augmentation part      960.0000000 magnetization 

 Free energy of the ion-electron system (eV)
  ---------------------------------------------------
  alpha Z        PSCENC =       804.77846877
  Ewald energy   TEWEN  =    -29710.58039243
  -Hartree energ DENC   =    -12528.58947304
  -exchange      EXHF   =         0.00000000
  -V(xc)+E(xc)   XCENC  =      2535.91809776
  PAW double counting   =     32496.41603574   -33591.34861692
  entropy T*S    EENTRO =        -0.00000000
  eigenvalues    EBANDS =    -11546.39978581
  atomic energy  EATOM  =     50983.98519967
  Solvation  Ediel_sol  =         0.00000000
  ---------------------------------------------------
  free energy    TOTEN  =      -555.82046627 eV

  energy without entropy =     -555.82046627  energy(sigma->0) =     -555.82046627


--------------------------------------------------------------------------------------------------------




--------------------------------------- Iteration      1(   7)  ---------------------------------------


    EDDIAG:  cpu time    0.9428: real time    0.9440
  RMM-DIIS:  cpu time    5.4597: real time    5.4631
    ORTHCH:  cpu time    0.2619: real time    0.2621
       DOS:  cpu time    0.0004: real time    0.0004
    --------------------------------------------
      LOOP:  cpu time    6.6649: real time    6.6697

 eigenvalue-minimisations  :   592
 total energy-change (2. order) :-0.7176865E+02  (-0.6884405E+02)
 number of electron     960.0000000 magnetization 
 augmentation part      960.0000000 magnetization 

 Free energy of the ion-electron system (eV)
  ---------------------------------------------------
  alpha Z        PSCENC =       804.77846877
  Ewald energy   TEWEN  =    -29710.58039243
  -Hartree energ DENC   =    -12528.58947304
  -exchange      EXHF   =         0.00000000
  -V(xc)+E(xc)   XCENC  =      2535.91809776
  PAW double counting   =     32496.41603574   -33591.34861692
  entropy T*S    EENTRO =        -0.00000000
  eigenvalues    EBANDS =    -11618.16843207
  atomic energy  EATOM  =     50983.98519967
  Solvation  Ediel_sol  =         0.00000000
  ---------------------------------------------------
  free energy    TOTEN  =      -627.58911253 eV

  energy without entropy =     -627.58911253  energy(sigma->0) =     -627.58911253


--------------------------------------------------------------------------------------------------------




--------------------------------------- Iteration      1(   8)  ---------------------------------------


    EDDIAG:  cpu time    0.9358: real time    0.9365
  RMM-DIIS:  cpu time    5.5188: real time    5.5238
    ORTHCH:  cpu time    0.2570: real time    0.2570
       DOS:  cpu time    0.0004: real time    0.0004
    --------------------------------------------
      LOOP:  cpu time    6.7120: real time    6.7178

 eigenvalue-minimisations  :   592
 total energy-change (2. order) :-0.4175721E+02  (-0.3935083E+02)
 number of electron     960.0000000 magnetization 
 augmentation part      960.0000000 magnetization 

 Free energy of the ion-electron system (eV)
  ---------------------------------------------------
  alpha Z        PSCENC =       804.77846877
  Ewald energy   TEWEN  =    -29710.58039243
  -Hartree energ DENC   =    -12528.58947304
  -exchange      EXHF   =         0.00000000
  -V(xc)+E(xc)   XCENC  =      2535.91809776
  PAW double counting   =     32496.41603574   -33591.34861692
  entropy T*S    EENTRO =        -0.00000000
  eigenvalues    EBANDS =    -11659.92564573
  atomic energy  EATOM  =     50983.98519967
  Solvation  Ediel_sol  =         0.00000000
  ---------------------------------------------------
  free energy    TOTEN  =      -669.34632619 eV

  energy without entropy =     -669.34632619  energy(sigma->0) =     -669.34632619


--------------------------------------------------------------------------------------------------------




--------------------------------------- Iteration      1(   9)  ---------------------------------------


    EDDIAG:  cpu time    0.9343: real time    0.9361
  RMM-DIIS:  cpu time   19.4487: real time   19.4580
    ORTHCH:  cpu time    0.2561: real time    0.2561
       DOS:  cpu time    0.0004: real time    0.0004
    --------------------------------------------
      LOOP:  cpu time   20.6396: real time   20.6506

 eigenvalue-minimisations  :  2144
 total energy-change (2. order) :-0.1100826E+03  (-0.1093312E+03)
 number of electron     960.0000000 magnetization 
 augmentation part      960.0000000 magnetization 

 Free energy of the ion-electron system (eV)
  ---------------------------------------------------
  alpha Z        PSCENC =       804.77846877
  Ewald energy   TEWEN  =    -29710.58039243
  -Hartree energ DENC   =    -12528.58947304
  -exchange      EXHF   =         0.00000000
  -V(xc)+E(xc)   XCENC  =      2535.91809776
  PAW double counting   =     32496.41603574   -33591.34861692
  entropy T*S    EENTRO =        -0.00000000
  eigenvalues    EBANDS =    -11770.00822794
  atomic energy  EATOM  =     50983.98519967
  Solvation  Ediel_sol  =         0.00000000
  ---------------------------------------------------
  free energy    TOTEN  =      -779.42890839 eV

  energy without entropy =     -779.42890839  energy(sigma->0) =     -779.42890839


--------------------------------------------------------------------------------------------------------




--------------------------------------- Iteration      1(  10)  ---------------------------------------


    EDDIAG:  cpu time    0.9609: real time    0.9617
  RMM-DIIS:  cpu time   19.5054: real time   19.5198
    ORTHCH:  cpu time    0.2590: real time    0.2590
       DOS:  cpu time    0.0004: real time    0.0004
    --------------------------------------------
      LOOP:  cpu time   20.7258: real time   20.7409

 eigenvalue-minimisations  :  2136
 total energy-change (2. order) :-0.5614111E+02  (-0.5529931E+02)
 number of electron     960.0000000 magnetization 
 augmentation part      960.0000000 magnetization 

 Free energy of the ion-electron system (eV)
  ---------------------------------------------------
  alpha Z        PSCENC =       804.77846877
  Ewald energy   TEWEN  =    -29710.58039243
  -Hartree energ DENC   =    -12528.58947304
  -exchange      EXHF   =         0.00000000
  -V(xc)+E(xc)   XCENC  =      2535.91809776
  PAW double counting   =     32496.41603574   -33591.34861692
  entropy T*S    EENTRO =        -0.00000000
  eigenvalues    EBANDS =    -11826.14933352
  atomic energy  EATOM  =     50983.98519967
  Solvation  Ediel_sol  =         0.00000000
  ---------------------------------------------------
  free energy    TOTEN  =      -835.57001398 eV

  energy without entropy =     -835.57001398  energy(sigma->0) =     -835.57001398


--------------------------------------------------------------------------------------------------------




--------------------------------------- Iteration      1(  11)  ---------------------------------------


    EDDIAG:  cpu time    0.9685: real time    0.9690
  RMM-DIIS:  cpu time   18.8230: real time   18.8351
    ORTHCH:  cpu time    0.2560: real time    0.2560
       DOS:  cpu time    0.0005: real time    0.0005
    --------------------------------------------
      LOOP:  cpu time   20.0480: real time   20.0605

 eigenvalue-minimisations  :  2072
 total energy-change (2. order) :-0.1303515E+02  (-0.1326340E+02)
 number of electron     960.0000000 magnetization 
 augmentation part      960.0000000 magnetization 

 Free energy of the ion-electron system (eV)
  ---------------------------------------------------
  alpha Z        PSCENC =       804.77846877
  Ewald energy   TEWEN  =    -29710.58039243
  -Hartree energ DENC   =    -12528.58947304
  -exchange      EXHF   =         0.00000000
  -V(xc)+E(xc)   XCENC  =      2535.91809776
  PAW double counting   =     32496.41603574   -33591.34861692
  entropy T*S    EENTRO =        -0.00000000
  eigenvalues    EBANDS =    -11839.18448207
  atomic energy  EATOM  =     50983.98519967
  Solvation  Ediel_sol  =         0.00000000
  ---------------------------------------------------
  free energy    TOTEN  =      -848.60516253 eV

  energy without entropy =     -848.60516253  energy(sigma->0) =     -848.60516253


--------------------------------------------------------------------------------------------------------




--------------------------------------- Iteration      1(  12)  ---------------------------------------


    EDDIAG:  cpu time    0.9398: real time    0.9407
  RMM-DIIS:  cpu time   18.6664: real time   18.6762
    ORTHCH:  cpu time    0.2597: real time    0.2597
       DOS:  cpu time    0.0004: real time    0.0004
    CHARGE:  cpu time    0.2033: real time    0.2036
    MIXING:  cpu time    0.0023: real time    0.0026
    --------------------------------------------
      LOOP:  cpu time   20.0719: real time   20.0833

 eigenvalue-minimisations  :  2040
 total energy-change (2. order) :-0.6618098E+01  (-0.6610220E+01)
 number of electron     959.9999536 magnetization 
 augmentation part        6.7043680 magnetization 

 Broyden mixing:
  rms(total) = 0.72192E+01    rms(broyden)= 0.72165E+01
  rms(prec ) = 0.75208E+01
  weight for this iteration     100.00

 Free energy of the ion-electron system (eV)
  ---------------------------------------------------
  alpha Z        PSCENC =       804.77846877
  Ewald energy   TEWEN  =    -29710.58039243
  -Hartree energ DENC   =    -12528.58947304
  -exchange      EXHF   =         0.00000000
  -V(xc)+E(xc)   XCENC  =      2535.91809776
  PAW double counting   =     32496.41603574   -33591.34861692
  entropy T*S    EENTRO =        -0.00000000
  eigenvalues    EBANDS =    -11845.80257977
  atomic energy  EATOM  =     50983.98519967
  Solvation  Ediel_sol  =         0.00000000
  ---------------------------------------------------
  free energy    TOTEN  =      -855.22326023 eV

  energy without entropy =     -855.22326023  energy(sigma->0) =     -855.22326023


--------------------------------------------------------------------------------------------------------




--------------------------------------- Iteration      1(  13)  ---------------------------------------


    POTLOK:  cpu time    0.0812: real time    0.0814
    SETDIJ:  cpu time    0.0069: real time    0.0069
    EDDIAG:  cpu time    0.9677: real time    0.9679
  RMM-DIIS:  cpu time   14.5227: real time   14.5324
    ORTHCH:  cpu time    0.2551: real time    0.2551
       DOS:  cpu time    0.0004: real time    0.0004
    CHARGE:  cpu time    0.1968: real time    0.1968
    MIXING:  cpu time    0.0022: real time    0.0024
    --------------------------------------------
      LOOP:  cpu time   16.0330: real time   16.0433

 eigenvalue-minimisations  :  1593
 total energy-change (2. order) : 0.3637229E+02  (-0.8884554E+01)
 number of electron     959.9999545 magnetization 
 augmentation part        7.3067599 magnetization 

 Broyden mixing:
  rms(total) = 0.47634E+01    rms(broyden)= 0.47633E+01
  rms(prec ) = 0.48691E+01
  weight for this iteration     100.00

 eigenvalues of (default mixing * dielectric matrix)
  average eigenvalue GAMMA=   2.2507
  2.2507

 Free energy of the ion-electron system (eV)
  ---------------------------------------------------
  alpha Z        PSCENC =       804.77846877
  Ewald energy   TEWEN  =    -29710.58039243
  -Hartree energ DENC   =    -12824.82984999
  -exchange      EXHF   =         0.00000000
  -V(xc)+E(xc)   XCENC  =      2558.26110585
  PAW double counting   =     45747.50402893   -46864.75304635
  entropy T*S    EENTRO =        -0.00000000
  eigenvalues    EBANDS =    -11513.21648686
  atomic energy  EATOM  =     50983.98519967
  Solvation  Ediel_sol  =         0.00000000
  ---------------------------------------------------
  free energy    TOTEN  =      -818.85097242 eV

  energy without entropy =     -818.85097242  energy(sigma->0) =     -818.85097242


--------------------------------------------------------------------------------------------------------




--------------------------------------- Iteration      1(  14)  ---------------------------------------


    POTLOK:  cpu time    0.0807: real time    0.0811
    SETDIJ:  cpu time    0.0069: real time    0.0069
    EDDIAG:  cpu time    0.9975: real time    0.9983
  RMM-DIIS:  cpu time   15.0447: real time   15.0515
    ORTHCH:  cpu time    0.2576: real time    0.2578
       DOS:  cpu time    0.0007: real time    0.0007
    CHARGE:  cpu time    0.2028: real time    0.2028
    MIXING:  cpu time    0.0021: real time    0.0021
    --------------------------------------------
      LOOP:  cpu time   16.5930: real time   16.6013

 eigenvalue-minimisations  :  1657
 total energy-change (2. order) : 0.3115000E+01  (-0.7500545E+01)
 number of electron     959.9999553 magnetization 
 augmentation part        6.9077702 magnetization 

 Broyden mixing:
  rms(total) = 0.15984E+01    rms(broyden)= 0.15982E+01
  rms(prec ) = 0.18355E+01
  weight for this iteration     100.00

 eigenvalues of (default mixing * dielectric matrix)
  average eigenvalue GAMMA=   1.8322
  1.2719  2.3926

 Free energy of the ion-electron system (eV)
  ---------------------------------------------------
  alpha Z        PSCENC =       804.77846877
  Ewald energy   TEWEN  =    -29710.58039243
  -Hartree energ DENC   =    -13114.46410155
  -exchange      EXHF   =         0.00000000
  -V(xc)+E(xc)   XCENC  =      2581.18083629
  PAW double counting   =     72600.82670273   -73744.77460388
  entropy T*S    EENTRO =        -0.02456942
  eigenvalues    EBANDS =    -11216.66351300
  atomic energy  EATOM  =     50983.98519967
  Solvation  Ediel_sol  =         0.00000000
  ---------------------------------------------------
  free energy    TOTEN  =      -815.73597282 eV

  energy without entropy =     -815.71140341  energy(sigma->0) =     -815.72368811


--------------------------------------------------------------------------------------------------------




--------------------------------------- Iteration      1(  15)  ---------------------------------------


    POTLOK:  cpu time    0.0811: real time    0.0812
    SETDIJ:  cpu time    0.0068: real time    0.0068
    EDDIAG:  cpu time    0.9643: real time    0.9658
  RMM-DIIS:  cpu time   16.6431: real time   16.6512
    ORTHCH:  cpu time    0.2618: real time    0.2624
       DOS:  cpu time    0.0005: real time    0.0005
    CHARGE:  cpu time    0.1942: real time    0.1942
    MIXING:  cpu time    0.0023: real time    0.0023
    --------------------------------------------
      LOOP:  cpu time   18.1540: real time   18.1644

 eigenvalue-minimisations  :  1843
 total energy-change (2. order) :-0.2357193E+01  (-0.2631695E+01)
 number of electron     959.9999557 magnetization 
 augmentation part        5.7047575 magnetization 

 Broyden mixing:
  rms(total) = 0.73554E+00    rms(broyden)= 0.73518E+00
  rms(prec ) = 0.87933E+00
  weight for this iteration     100.00

 eigenvalues of (default mixing * dielectric matrix)
  average eigenvalue GAMMA=   1.4662
  2.4212  1.3709  0.6066

 Free energy of the ion-electron system (eV)
  ---------------------------------------------------
  alpha Z        PSCENC =       804.77846877
[...]
      9.75412      1.76951      4.22025        -1.568532      0.634708     -2.595666
     12.63560      0.06638     13.98820        -0.817365      1.645159      0.567235
     14.56160     13.61060      1.91829         1.849736      1.934543      2.230768
      5.46044      8.47025      0.81949        -0.059632      3.966663      0.754145
     13.52080      4.18716      3.03616         0.462914     -3.578264     -1.435146
     10.70380      7.55591     16.15930         1.587931      0.655892      0.860974
      4.32028     10.67270      4.13166         0.142533     -0.984811      3.709628
      8.17952      6.65251     13.86780        -2.096359     -1.177359     -0.020056
     11.15710      0.77133      9.27284        -0.191845      1.851220      0.931721
     10.52730     14.17740      7.53790         0.535189     -0.247568      0.812098
      9.69373     14.08070     10.60320        -1.155214      0.412490      0.547313
     12.79280     14.03080     10.27370         0.179244      0.225495     -0.411855
     10.94400     10.90300     11.88100         0.107784      0.358879      0.477046
     11.44970     11.88620      4.86766         1.318050     -0.676920      0.581601
      8.06014     15.42810     10.34980         1.117169      0.094278     -0.255986
      8.08468     11.10650      6.95001        -0.182351     -0.465197      0.364328
      6.73546      6.45286      3.03137         0.386972     -0.484799      0.705918
      5.51809      4.59435      5.79774        -0.068388     -0.499348      1.043911
      1.95111      2.18776      4.32585         0.458625     -0.351419     -0.220534
      3.82069      5.49731      3.03021        -0.497755      0.090705     -0.103309
      3.92228     15.57900      6.63211         0.981870     -0.434143     -0.375377
      4.47988      0.76562      9.48412         0.318402      0.847288      1.227152
      4.47306     13.45140      9.19961        -1.470279      1.343935     -0.380566
      1.34876     15.35900      8.68849         0.934701      0.236343      0.250730
     14.34320      7.33694      7.10318        -0.998490     -2.373168      1.689384
     10.65170      8.45135      5.02193         0.430973      0.132137      0.523514
      1.06725      9.46049      6.37783        -1.250015     -0.068422      0.616567
     10.84800      5.07615      7.11573         0.215841     -0.112309      0.256403
     13.91980      6.61987     13.96620        -1.154971      0.772319     -0.637171
      0.42651      7.07827     12.44190         1.859139      0.467788     -0.124273
     13.89360      9.00440     11.43680        -0.023680      0.865168      1.017368
     10.79670      7.88649      9.03759         0.820130     -0.449863      0.893981
      9.27938      9.30747      9.57007        -0.413338     -1.004898     -0.558755
      7.64804      6.90727      8.48172        -0.598209      0.383540     -0.188728
      6.78520      3.85824      9.45367        -1.048471      0.140402     -1.225807
      8.99896      4.28437      7.72741         1.851337     -2.183979     -3.049612
      0.53879     11.41660      9.31331         0.157683     -0.603257     -0.197432
      5.57770     10.44170      9.58191        -0.822875     -1.158855     -0.432774
      0.85175      7.97264      9.43965         0.273158      0.944749     -0.479622
      2.69593     11.60000     12.66630        -0.249317      0.256571      0.470978
      7.52277      1.14301      6.42320        -0.917653     -0.440157      0.041879
     11.12390      1.67772      2.44173         0.536251     -0.714102      0.271807
     10.85900      1.36459      5.80915         1.896790     -0.334189      1.691767
      9.39733      3.81869      3.97670        -0.579948      0.388947      0.630487
     12.01280      1.62238     15.36420         1.221533     -1.297780     -0.147754
     10.89890     16.04150     12.96590        -1.197241     -0.474174     -0.908009
     12.75930     14.28270     14.80390        -0.338507     -0.422673     -0.832110
     14.12160      0.56872     12.75310         0.490955     -0.424881      0.043423
     13.21570     15.16190      2.59077        -0.423686     -0.736612      0.319702
     14.70400      9.34341      3.95521         0.503423     -0.375132     -0.072874
     15.56960     14.65450      0.43188        -0.048731      1.094192     -1.030751
     13.46020     12.35420      0.95357        -2.319762     -2.887156     -1.573849
      5.89783      9.39335      4.63656        -0.302469      0.096087     -0.629109
      7.19524      9.13074     16.24900         0.491110      0.347974      0.308828
      3.90918      9.79016     16.14700         0.011427     -0.465397      0.561252
      5.30060      6.68673      0.10020        -0.388145     -3.271693     -1.590238
     13.77750      3.10224      4.63505        -0.327653     -1.836398      1.937223
     11.90900      3.46879      1.86039        -0.720431      0.352319     -0.515122
     15.20680      4.20215      2.05495         1.437360      0.560170     -1.439255
     13.10530      5.86194      3.74941        -1.596490      5.000304      1.177050
     10.40690      8.11032      1.66437        -0.538619      0.718910      0.678938
      9.50759      6.06430     15.57750        -0.924113     -1.046741     -0.791136
     12.37710      6.54177     16.35360         1.722633     -2.311596      1.118333
     11.41700      9.08564     15.12900        -1.262731      1.966513     -1.230502
      2.70485      9.49738      3.62782        -0.023557      0.212895     -0.710795
      4.85290     12.20940      3.04862        -0.316228      1.105826     -1.143039
      7.30030     12.78590      5.99894        -0.026704      0.785357     -0.003906
      3.86779     11.40670      6.22433        -1.625435      0.941773     -2.424144
      8.08975      4.56309     13.11540        -0.799096      0.590944      0.931351
     11.33860      6.68524     10.70160        -0.580973      0.238007     -0.857806
      8.11673      1.41247     14.16870         0.015935     -0.785855     -0.796855
      8.92017      7.69102     12.37140         0.516064      1.026978     -0.472123
      8.70147     11.34290      2.80387         0.581560      0.224006     -0.938834
      3.67524     14.42730      0.03777        -0.181489     -0.275799     -0.042802
      6.94326     11.67370     10.31590         1.533674      1.364321      0.164299
     15.59230      9.86521     15.07950        -0.008795      0.462817     -0.655808
      3.66334      7.54767     13.35980        -0.484578     -0.271169      0.019956
      6.07847      2.90261      0.01031        -0.717628      1.177123      1.297223
     11.59850      3.78026     12.40960        -0.053759     -0.225517     -0.002190
      4.16862      2.80835     12.69990         0.631327      0.241469     -0.263636
      0.94924      5.65227      5.55941        -0.311953      0.393600     -0.228468
     15.47970      8.34454      2.07929        -0.401111      0.513868      0.903314
      5.39980     14.69940     12.92330         1.046359     -1.126935     -0.198104
     14.77870     13.14380      6.65131        -1.753373     -1.287568     -0.646737
      0.03633      3.47427     12.92910         0.495146     -0.225551     -0.788497
      8.46553      6.97829      4.21171        -1.625217      1.082250     -0.001468
      9.37606     14.81670      3.84569         0.486898     -0.214196      0.636652
      7.59944      2.17587     10.26350         0.350792     -0.698173     -0.281040
      8.50822     15.06170      0.13044        -0.303576     -0.148202      0.003485
      5.93370      0.20249      2.65258        -0.610693      0.437061     -0.272386
      3.92868      7.34932      7.12076        -0.052724      0.387487     -0.291286
      8.54911     12.27300     14.64140         0.916920     -0.010637     -0.124133
      6.13630     10.23810     12.96330         0.156123     -0.357403      1.049109
      2.38553      2.64678     16.36640        -0.031720     -0.102045      0.339021
     14.03680      3.42790      9.03179        -0.162816      0.038389      0.007251
      1.61340      4.05152      9.48906        -0.412388     -0.175419     -0.573151
      1.39681     11.81220      1.09454        -0.257223     -0.560202     -0.008287
      1.28909     13.70170      4.54729         0.124869     -0.100091     -0.044242
      1.69922     15.26880     12.73440         0.531704      1.520467      0.804504
     15.19990     12.84290     12.69420         0.004526     -0.236006      0.442077
      1.04956      6.81516     15.98750         0.093799     -0.351892      0.555708
     12.50100     10.68530      8.33116        -0.512008      0.183566     -0.237470
     14.33150      0.35951      6.47178        -0.502534      0.294529      0.622926
      4.42097      6.10978     10.43370         0.159864      0.039907      0.240502
 -----------------------------------------------------------------------------------
    total drift:                               -0.021461     -0.002095      0.004653


--------------------------------------------------------------------------------------------------------



  FREE ENERGIE OF THE ION-ELECTRON SYSTEM (eV)
  ---------------------------------------------------
  free  energy   TOTEN  =      -816.65068273 eV

  energy  without entropy=     -816.65034001  energy(sigma->0) =     -816.65051137
 


--------------------------------------------------------------------------------------------------------


    POTLOK:  cpu time    0.0924: real time    0.0927


--------------------------------------------------------------------------------------------------------




--------------------------------------------------------------------------------------------------------


     LOOP+:  cpu time  930.1217: real time  930.7057
    4ORBIT:  cpu time    0.0000: real time    0.0000
 


 total charge     
 
# of ion       s       p       d       tot
------------------------------------------
    1        2.020   0.054   0.000   2.074
    2        2.004   0.029   0.000   2.033
    3        2.019   0.054   0.000   2.073
    4        2.030   0.071   0.000   2.101
    5        2.027   0.071   0.000   2.099
    6        2.011   0.038   0.000   2.049
    7        2.006   0.029   0.000   2.035
    8        2.014   0.044   0.000   2.057
    9        2.011   0.039   0.000   2.050
   10        2.017   0.049   0.000   2.066
   11        2.015   0.042   0.000   2.057
   12        2.023   0.058   0.000   2.081
   13        2.011   0.037   0.000   2.048
   14        2.010   0.042   0.000   2.052
   15        2.011   0.042   0.000   2.053
   16        2.025   0.062   0.000   2.086
   17        2.011   0.041   0.000   2.052
   18        2.019   0.051   0.000   2.071
   19        2.007   0.034   0.000   2.040
   20        2.017   0.051   0.000   2.067
   21        2.015   0.045   0.000   2.060
   22        2.008   0.034   0.000   2.041
   23        2.002   0.025   0.000   2.026
   24        2.016   0.046   0.000   2.063
   25        2.021   0.055   0.000   2.077
   26        2.022   0.060   0.000   2.082
   27        2.027   0.064   0.000   2.091
   28        2.018   0.051   0.000   2.069
   29        2.022   0.055   0.000   2.078
   30        2.007   0.036   0.000   2.043
   31        2.017   0.046   0.000   2.063
   32        2.021   0.050   0.000   2.070
   33        2.016   0.045   0.000   2.061
   34        2.015   0.045   0.000   2.061
   35        2.020   0.055   0.000   2.075
   36        2.012   0.038   0.000   2.051
   37        2.014   0.043   0.000   2.057
   38        2.015   0.044   0.000   2.059
   39        2.016   0.048   0.000   2.064
   40        2.034   0.076   0.000   2.110
   41        2.023   0.058   0.000   2.081
   42        2.021   0.054   0.000   2.075
   43        2.019   0.052   0.000   2.071
   44        2.017   0.048   0.000   2.066
   45        2.006   0.031   0.000   2.037
   46        2.007   0.032   0.000   2.040
   47        2.013   0.040   0.000   2.053
   48        2.016   0.047   0.000   2.063
   49        2.016   0.047   0.000   2.063
   50        2.023   0.057   0.000   2.080
   51        2.015   0.046   0.000   2.061
   52        2.014   0.045   0.000   2.059
   53        2.020   0.055   0.000   2.075
   54        2.017   0.050   0.000   2.067
   55        2.021   0.054   0.000   2.075
   56        2.009   0.037   0.000   2.047
   57        2.014   0.047   0.000   2.061
   58        2.011   0.040   0.000   2.051
   59        2.019   0.053   0.000   2.072
   60        2.017   0.047   0.000   2.064
   61        2.021   0.055   0.000   2.076
   62        2.032   0.067   0.000   2.098
   63        2.027   0.066   0.000   2.093
   64        2.032   0.073   0.000   2.105
   65        2.016   0.045   0.000   2.061
   66        2.016   0.048   0.000   2.064
   67        2.027   0.066   0.000   2.093
   68        2.023   0.056   0.000   2.079
   69        2.008   0.035   0.000   2.044
   70        2.022   0.056   0.000   2.079
   71        2.027   0.066   0.000   2.093
   72        2.021   0.054   0.000   2.075
   73        2.022   0.059   0.000   2.081
   74        2.020   0.054   0.000   2.074
   75        2.015   0.043   0.000   2.058
   76        2.012   0.038   0.000   2.050
   77        2.031   0.070   0.000   2.101
   78        2.027   0.069   0.000   2.096
   79        2.016   0.049   0.000   2.065
   80        2.025   0.061   0.000   2.085
   81        2.019   0.055   0.000   2.074
   82        2.016   0.050   0.000   2.066
   83        2.033   0.079   0.000   2.112
   84        2.015   0.046   0.000   2.061
   85        2.013   0.042   0.000   2.055
   86        2.017   0.047   0.000   2.064
   87        2.019   0.052   0.000   2.071
   88        2.015   0.048   0.000   2.063
   89        2.024   0.062   0.000   2.086
   90        2.020   0.054   0.000   2.074
   91        2.024   0.065   0.000   2.089
   92        2.018   0.050   0.000   2.068
   93        2.015   0.044   0.000   2.059
   94        2.022   0.051   0.000   2.073
   95        2.015   0.047   0.000   2.062
   96        2.015   0.044   0.000   2.059
   97        0.981   1.402   0.000   2.382
   98        1.114   1.314   0.000   2.428
   99        1.045   1.392   0.000   2.437
  100        0.983   1.341   0.000   2.325
  101        1.097   1.328   0.000   2.425
  102        1.058   1.375   0.000   2.433
  103        1.077   1.445   0.000   2.521
  104        1.095   1.269   0.000   2.364
  105        1.094   1.324   0.000   2.418
  106        0.974   1.383   0.000   2.357
  107        1.055   1.415   0.000   2.470
  108        1.076   1.342   0.000   2.418
  109        0.981   1.509   0.000   2.490
  110        0.975   1.455   0.000   2.430
  111        0.977   1.365   0.000   2.342
  112        1.085   1.314   0.000   2.399
  113        1.333   2.509   0.000   3.843
  114        1.336   2.410   0.000   3.746
  115        1.367   2.319   0.000   3.686
  116        1.353   2.382   0.000   3.735
  117        1.346   2.399   0.000   3.744
  118        1.311   2.515   0.000   3.826
  119        1.348   2.357   0.000   3.705
  120        1.341   2.377   0.000   3.719
  121        1.364   2.309   0.000   3.673
  122        1.343   2.464   0.000   3.806
  123        1.315   2.380   0.000   3.695
  124        1.341   2.423   0.000   3.765
  125        1.329   2.462   0.000   3.791
  126        1.349   2.423   0.000   3.773
  127        1.354   2.345   0.000   3.699
  128        1.344   2.375   0.000   3.720
  129        1.342   2.500   0.000   3.841
  130        1.322   2.405   0.000   3.727
  131        1.357   2.375   0.000   3.731
  132        1.336   2.377   0.000   3.713
  133        1.343   2.463   0.000   3.806
  134        1.334   2.481   0.000   3.815
  135        1.335   2.431   0.000   3.765
  136        1.374   2.236   0.000   3.609
  137        1.376   2.310   0.000   3.686
  138        1.337   2.442   0.000   3.780
  139        1.366   2.350   0.000   3.716
  140        1.354   2.383   0.000   3.737
  141        1.334   2.412   0.000   3.747
  142        1.339   2.366   0.000   3.705
  143        1.351   2.381   0.000   3.732
  144        1.306   2.492   0.000   3.799
  145        1.310   2.461   0.000   3.770
  146        1.375   2.276   0.000   3.651
  147        1.331   2.486   0.000   3.817
  148        1.341   2.412   0.000   3.753
  149        1.350   2.348   0.000   3.698
  150        1.340   2.483   0.000   3.823
  151        1.347   2.449   0.000   3.795
  152        1.349   2.422   0.000   3.772
  153        1.341   2.400   0.000   3.741
  154        1.365   2.246   0.000   3.611
  155        1.330   2.499   0.000   3.830
  156        1.338   2.485   0.000   3.824
  157        1.344   2.410   0.000   3.754
  158        1.335   2.416   0.000   3.751
  159        1.333   2.383   0.000   3.716
  160        1.330   2.566   0.000   3.896
  161        1.342   2.505   0.000   3.847
  162        1.364   2.319   0.000   3.683
  163        1.337   2.476   0.000   3.813
  164        1.334   2.562   0.000   3.896
  165        1.340   2.453   0.000   3.793
  166        1.362   2.382   0.000   3.744
  167        1.342   2.489   0.000   3.831
  168        1.335   2.452   0.000   3.786
  169        1.336   2.452   0.000   3.788
  170        1.346   2.456   0.000   3.802
  171        1.334   2.395   0.000   3.729
  172        1.350   2.381   0.000   3.731
  173        1.343   2.388   0.000   3.731
  174        1.358   2.317   0.000   3.675
  175        1.318   2.419   0.000   3.737
  176        1.353   2.418   0.000   3.771
  177        1.311   2.505   0.000   3.816
  178        1.309   2.444   0.000   3.752
  179        1.343   2.344   0.000   3.687
  180        1.309   2.465   0.000   3.773
  181        1.310   2.489   0.000   3.799
  182        1.315   2.445   0.000   3.760
  183        1.312   2.454   0.000   3.766
  184        1.307   2.469   0.000   3.776
  185        1.309   2.452   0.000   3.761
  186        1.350   2.312   0.000   3.662
  187        1.308   2.485   0.000   3.793
  188        1.318   2.490   0.000   3.808
  189        1.310   2.451   0.000   3.761
  190        1.372   2.321   0.000   3.693
  191        1.316   2.444   0.000   3.760
  192        1.352   2.372   0.000   3.723
  193        1.590   3.594   0.000   5.184
  194        1.592   3.560   0.000   5.152
  195        1.591   3.562   0.000   5.153
  196        1.590   3.606   0.000   5.196
  197        1.594   3.589   0.000   5.183
  198        1.588   3.558   0.000   5.146
  199        1.588   3.564   0.000   5.152
  200        1.591   3.594   0.000   5.185
  201        1.592   3.595   0.000   5.187
  202        1.593   3.562   0.000   5.155
  203        1.592   3.592   0.000   5.184
  204        1.592   3.558   0.000   5.150
  205        1.592   3.573   0.000   5.165
  206        1.595   3.612   0.000   5.207
  207        1.593   3.551   0.000   5.143
  208        1.593   3.550   0.000   5.143
--------------------------------------------------
tot        342.920 277.403   0.000 620.323
 

 total amount of memory used by VASP MPI-rank0   111673. kBytes
=======================================================================

   base      :      30000. kBytes
   nonl-proj :      48226. kBytes
   fftplans  :       6264. kBytes
   grid      :      10964. kBytes
   one-center:         79. kBytes
   wavefun   :      16140. kBytes
 
  
  
 General timing and accounting informations for this job:
 ========================================================
  
                  Total CPU time used (sec):      939.257
                            User time (sec):      935.840
                          System time (sec):        3.416
                         Elapsed time (sec):      940.426
  
                   Maximum memory used (kb):      324752.
                   Average memory used (kb):           0.
  
                          Minor page faults:       432002
                          Major page faults:            0
                 Voluntary context switches:        11728
