LPSC                                    
           1
    16.026082    0.000000    0.000000
     0.000000   16.100000    0.000000
     0.000000    0.000000   16.425367
   Li   P    S    Cl
  96  16  80  16
Direct configuration=     1
   0.71802952  0.81586957  0.19165173
   0.57131431  0.67118634  0.00819428
   0.66529673  0.62947826  0.19255704
   0.83145712  0.93743478  0.01569992
   0.57953404  0.77656522  0.28966902
   0.90513701  0.75948447  0.91517590
   0.23383070  0.04947093  0.04386252
   0.21559106  0.85395652  0.28514858
   0.11748598  0.99976398  0.35941358
   0.22834464  0.74149068  0.05521837
   0.10022974  0.69226708  0.89918234
   0.33477490  0.84463354  0.42917641
   0.38116116  0.48402298  0.60914316
   0.53119222  0.80666460  0.52829809
   0.71577070  0.85932919  0.76561455
   0.33777002  0.64416770  0.43414677
   0.70744677  0.52495528  0.76596766
   0.15975458  0.71080124  0.63204676
   0.97147887  0.90762733  0.87560905
   0.91860256  0.47105776  0.96504997
   0.15957862  0.47368944  0.68093456
   0.50384742  0.89504969  0.85608437
   0.00611486  0.62944720  0.74494530
   0.84463564  0.58571553  0.85089727
   0.35322046  0.47687578  0.87844613
   0.08108158  0.51076273  0.86894253
   0.23561529  0.61150745  0.82234388
   0.42037723  0.70537267  0.91946804
   0.06743882  0.31542857  0.68972584
   0.53461663  0.64478882  0.74589505
   0.27404390  0.27650559  0.05035407
   0.35048928  0.17372857  0.14671940
   0.46274442  0.07106832  0.01805628
   0.42997783  0.32066646  0.04180704
   0.62965483  0.38507516  0.18569692
   0.06628570  0.16371615  0.12292632
   0.79660768  0.10432422  0.48631973
   0.81328674  0.30952050  0.67103523
   0.62700915  0.00638783  0.93610085
   0.57692392  0.31071242  0.68529976
   0.86915816  0.17359752  0.80636250
   0.76763616  0.31483665  0.86586193
   0.47584369  0.21521925  0.34966890
   0.25121299  0.00332529  0.73359700
   0.32499459  0.08818944  0.34150226
   0.97791837  0.16018634  0.63456116
   0.41025374  0.98963354  0.50266335
   0.94712482  0.32458075  0.42196074
   0.38068256  0.41339379  0.39445694
   0.00181832  0.21553168  0.27204750
   0.18551634  0.27683602  0.30854044
   0.96803448  0.38892360  0.21139741
   0.13292769  0.48504596  0.32131824
   0.27780776  0.48959814  0.18901191
   0.78825255  0.60796957  0.31265177
   0.10625304  0.57946398  0.08416555
   0.80621078  0.46871366  0.12299269
   0.08841899  0.69973292  0.29853823
   0.95645336  0.66112422  0.04777988
   0.10957700  0.41230807  0.46689977
   0.43750681  0.01786820  0.74819028
   0.32443176  0.94019876  0.91688058
   0.38322966  0.88698758  0.63672854
   0.08406858  0.83354037  0.73635493
   0.21444231  0.84811801  0.85811172
   0.32007324  0.74737267  0.74412340
   0.03854074  0.82517391  0.45656027
   0.88549403  0.91041615  0.49108126
   0.87691427  0.79127329  0.24923948
   0.89441075  0.73517391  0.53062985
   0.78475201  0.76454037  0.41627319
   0.73948829  0.10466584  0.70059926
   0.98835760  0.33244969  0.86220905
   0.37964051  0.17778447  0.85627310
   0.13625726  0.16186025  0.84165547
   0.28604434  0.33108571  0.78518185
   0.09339401  0.87512422  0.05125876
   0.21137668  0.45520932  0.95164997
   0.57678227  0.42013416  0.39013679
   0.51730922  0.57794037  0.13523229
   0.71620749  0.23308012  0.31137143
   0.52568369  0.60432050  0.29768528
   0.42890333  0.71401863  0.23815845
   0.77317088  0.42250932  0.35633237
   0.82571648  0.04587646  0.26728231
   0.50755887  0.87321739  0.13005859
   0.64365077  0.66957143  0.40647920
   0.70184965  0.93039130  0.33322300
   0.47040568  0.02255286  0.24567122
   0.54114287  0.94278882  0.37882624
   0.38428981  0.22238882  0.70118372
   0.82616575  0.54995839  0.55881065
   0.57746990  0.09977143  0.72000218
   0.19409360  0.18881056  0.64955017
   0.58936426  0.09945776  0.47577080
   0.61833891  0.19053230  0.85657142
   0.70007754  0.92760870  0.57427819
   0.62767681  0.69030435  0.61346574
   0.34921511  0.29462733  0.23189436
   0.21290606  0.95819255  0.52853187
   0.93164380  0.55635466  0.38650582
   0.90276588  0.44002733  0.72973103
   0.52420423  0.32335031  0.56913127
   0.10010245  0.60209130  0.51606214
   0.60864034  0.10990745  0.25693490
   0.78843974  0.00412318  0.85162176
   0.90861884  0.84537888  0.11678826
   0.34072208  0.52610248  0.04989198
   0.84367470  0.26007205  0.18484579
   0.66789874  0.46931118  0.98380146
   0.26957805  0.66290062  0.25154141
   0.51038800  0.41319938  0.84429164
   0.69618388  0.04790894  0.56454385
   0.65688544  0.88058385  0.45891821
   0.60487211  0.87457764  0.64553809
   0.79824875  0.87147826  0.62547765
   0.68288681  0.67720497  0.72333239
   0.71444162  0.73827329  0.29635015
   0.50293890  0.95826708  0.63011073
   0.50447015  0.68984472  0.42312662
   0.42028114  0.40079876  0.18455417
   0.34431934  0.28536335  0.35297476
   0.12174591  0.13588571  0.26336398
   0.23840450  0.34144783  0.18448355
   0.24474354  0.96763975  0.40377241
   0.27953682  0.04755379  0.57740689
   0.27911126  0.83549068  0.56008551
   0.08416031  0.95397516  0.52896779
   0.89499105  0.45571056  0.43245183
   0.66464779  0.52492857  0.30574233
   0.06659457  0.58760807  0.38829148
   0.67689657  0.31528882  0.43321589
   0.86857162  0.41117205  0.85028237
   0.02661374  0.43964410  0.75748079
   0.86693678  0.55927950  0.69628886
   0.67369554  0.48984410  0.55022150
   0.57901738  0.57810373  0.58263965
   0.47722456  0.42902298  0.51637933
   0.42338483  0.23964224  0.57555305
   0.56151965  0.26610994  0.47045585
   0.03361938  0.70910559  0.56700773
   0.34803890  0.64855280  0.58336048
   0.05314749  0.49519503  0.57469949
   0.16822140  0.72049689  0.77114259
   0.46940793  0.07099441  0.39105367
   0.69411226  0.10420621  0.14865604
   0.67758296  0.08475714  0.35366942
   0.58637726  0.23718571  0.24210722
   0.74957809  0.10076894  0.93539462
   0.68007265  0.99636646  0.78938267
   0.79615841  0.88712422  0.90128275
   0.88116359  0.03532447  0.77642710
   0.82463699  0.94173292  0.15772981
   0.91750435  0.58033602  0.24079888
   0.97151631  0.91021739  0.02629323
   0.83989337  0.76734161  0.05805484
   0.36801447  0.58343789  0.28228045
   0.44897062  0.56712671  0.98926252
   0.24392612  0.60808447  0.98305262
   0.33074834  0.41532484  0.00610032
   0.85969234  0.19268571  0.28218852
   0.74310115  0.21545280  0.11326322
   0.94887821  0.26100311  0.12510832
   0.81774822  0.36409565  0.22826948
   0.64937269  0.50374658  0.10132924
   0.59325729  0.37666460  0.94838064
   0.77230979  0.40632112  0.99563072
   0.71240120  0.56432547  0.92107531
   0.16877800  0.58989938  0.22086691
   0.30281263  0.75834783  0.18560438
   0.45552619  0.79415528  0.36522411
   0.24134346  0.70849068  0.37894618
   0.50478651  0.28342174  0.79848444
   0.70750917  0.41523230  0.65152882
   0.50647002  0.08773106  0.86261086
   0.55660329  0.47770311  0.75318865
   0.54295679  0.70452795  0.17070364
   0.22932867  0.89610559  0.00229931
   0.43324750  0.72507453  0.62804685
   0.97293275  0.61274596  0.91806168
   0.22858613  0.46879938  0.81336387
   0.37928609  0.18028634  0.00062743
   0.72372649  0.23479876  0.75551432
   0.26011473  0.17443168  0.77318820
   0.05923088  0.35107267  0.33846489
   0.96590670  0.51829441  0.12659017
   0.33693825  0.91300621  0.78678912
   0.92216550  0.81638509  0.40494133
   0.00226674  0.21579317  0.78714223
   0.52823454  0.43343416  0.25641497
   0.58505005  0.92029193  0.23413115
   0.47419201  0.13514720  0.62485666
   0.53089832  0.93550932  0.00794113
   0.37025269  0.01257714  0.16149289
   0.24514289  0.45647950  0.43352212
   0.53344979  0.76229814  0.89138952
   0.38289458  0.63590683  0.78922437
   0.14885298  0.16439627  0.99641000
   0.87587222  0.21291304  0.54986838
   0.10067339  0.25164720  0.57770764
   0.08715855  0.73367702  0.06663717
   0.08043700  0.85103727  0.27684556
   0.10602841  0.94837267  0.77528861
   0.94844766  0.79769565  0.77284118
   0.06549074  0.42330186  0.97334203
   0.78004094  0.66368323  0.50721302
   0.89426099  0.02232988  0.39401129
   0.27586094  0.37948944  0.63521868
