       N       E                     dE             d eps       ncg     rms          rms(c)
RMM:   1    -0.385682126758E+04   -0.38568E+04   -0.47049E+05   592   0.130E+03
RMM:   2     0.238327049298E+04    0.62401E+04   -0.73543E+04   592   0.250E+02
RMM:   3     0.790012556670E+03   -0.15933E+04   -0.23385E+04   592   0.134E+02
RMM:   4    -0.376683590220E+02   -0.82768E+03   -0.82977E+03   592   0.973E+01
RMM:   5    -0.397102215478E+03   -0.35943E+03   -0.32914E+03   592   0.632E+01
RMM:   6    -0.549257678911E+03   -0.15216E+03   -0.13942E+03   592   0.466E+01
RMM:   7    -0.621536616491E+03   -0.72279E+02   -0.69179E+02   592   0.358E+01
RMM:   8    -0.663522730698E+03   -0.41986E+02   -0.39631E+02   592   0.306E+01
RMM:   9    -0.774880606517E+03   -0.11136E+03   -0.11060E+03  2144   0.268E+01
RMM:  10    -0.832570262910E+03   -0.57690E+02   -0.56899E+02  2141   0.174E+01
RMM:  11    -0.844710627777E+03   -0.12140E+02   -0.12493E+02  2064   0.105E+01
RMM:  12    -0.852076402835E+03   -0.73658E+01   -0.73670E+01  2036   0.785E+00    0.707E+01
RMM:  13    -0.812979717934E+03    0.39097E+02   -0.95660E+01  1585   0.833E+00    0.469E+01
RMM:  14    -0.809164539720E+03    0.38152E+01   -0.77434E+01  1667   0.726E+00    0.153E+01
RMM:  15    -0.810287003015E+03   -0.11225E+01   -0.21450E+01  1864   0.439E+00    0.561E+00
RMM:  16    -0.809757364549E+03    0.52964E+00   -0.54383E+00  2017   0.282E+00    0.391E+00
RMM:  17    -0.809787599379E+03   -0.30235E-01   -0.44481E+00  1963   0.223E+00    0.221E+00
RMM:  18    -0.810001566493E+03   -0.21397E+00   -0.24089E+00  1954   0.173E+00    0.155E+00
RMM:  19    -0.810140593903E+03   -0.13903E+00   -0.13724E+00  1951   0.140E+00    0.652E-01
RMM:  20    -0.810259903587E+03   -0.11931E+00   -0.12049E+00  2038   0.116E+00    0.485E-01
RMM:  21    -0.810326468671E+03   -0.66565E-01   -0.69569E-01  2044   0.926E-01    0.212E-01
RMM:  22    -0.810367989495E+03   -0.41521E-01   -0.42126E-01  2046   0.736E-01    0.237E-01
RMM:  23    -0.810396821271E+03   -0.28832E-01   -0.30358E-01  2048   0.613E-01    0.236E-01
RMM:  24    -0.810413896909E+03   -0.17076E-01   -0.19060E-01  1956   0.506E-01    0.415E-01
RMM:  25    -0.810427379725E+03   -0.13483E-01   -0.14008E-01  1961   0.427E-01    0.365E-01
RMM:  26    -0.810437780855E+03   -0.10401E-01   -0.11192E-01  2044   0.357E-01    0.326E-01
RMM:  27    -0.810443371044E+03   -0.55902E-02   -0.63907E-02  2050   0.288E-01    0.339E-01
RMM:  28    -0.810447371248E+03   -0.40002E-02   -0.47176E-02  2048   0.239E-01    0.349E-01
RMM:  29    -0.810449829260E+03   -0.24580E-02   -0.33464E-02  1925   0.201E-01    0.401E-01
RMM:  30    -0.810451856702E+03   -0.20274E-02   -0.21454E-02  1954   0.168E-01    0.345E-01
RMM:  31    -0.810453595179E+03   -0.17385E-02   -0.17738E-02  2050   0.143E-01    0.295E-01
RMM:  32    -0.810454647549E+03   -0.10524E-02   -0.10457E-02  2049   0.116E-01    0.249E-01
RMM:  33    -0.810455466556E+03   -0.81901E-03   -0.77913E-03  2046   0.981E-02    0.195E-01
RMM:  34    -0.810456086444E+03   -0.61989E-03   -0.59018E-03  1972   0.896E-02    0.460E-02
RMM:  35    -0.810456419509E+03   -0.33306E-03   -0.42674E-03  2043   0.688E-02    0.199E-02
RMM:  36    -0.810456635174E+03   -0.21567E-03   -0.27326E-03  2015   0.553E-02    0.235E-02
RMM:  37    -0.810456754961E+03   -0.11979E-03   -0.17695E-03  2042   0.453E-02    0.393E-02
RMM:  38    -0.810456921317E+03   -0.16636E-03   -0.13261E-03  1850   0.385E-02    0.202E-02
RMM:  39    -0.810457031593E+03   -0.11028E-03   -0.10543E-03  1841   0.329E-02    0.105E-02
RMM:  40    -0.810457094704E+03   -0.63111E-04   -0.75497E-04  1837   0.278E-02    0.120E-02
RMM:  41    -0.810457164788E+03   -0.70084E-04   -0.54618E-04  1831   0.240E-02    0.351E-03
RMM:  42    -0.810457214866E+03   -0.50078E-04   -0.44937E-04  1811   0.208E-02    0.696E-03
RMM:  43    -0.810457247222E+03   -0.32355E-04   -0.31069E-04  1732   0.177E-02    0.103E-02
RMM:  44    -0.810457270157E+03   -0.22936E-04   -0.24272E-04  1635   0.154E-02    0.119E-02
RMM:  45    -0.810457282944E+03   -0.12787E-04   -0.17511E-04  1548   0.133E-02    0.114E-02
RMM:  46    -0.810457292868E+03   -0.99238E-05   -0.13476E-04  1537   0.118E-02    0.918E-03
RMM:  47    -0.810457298417E+03   -0.55493E-05   -0.10602E-04  1496   0.106E-02    0.704E-03
RMM:  48    -0.810457305273E+03   -0.68560E-05   -0.77337E-05  1307   0.940E-03    0.738E-03
RMM:  49    -0.810457310705E+03   -0.54319E-05   -0.61260E-05  1296   0.854E-03    0.786E-03
RMM:  50    -0.810457314654E+03   -0.39492E-05   -0.45851E-05  1225   0.782E-03    0.829E-03
RMM:  51    -0.810457317673E+03   -0.30188E-05   -0.36463E-05  1227   0.727E-03    0.855E-03
RMM:  52    -0.810457319846E+03   -0.21730E-05   -0.26349E-05  1093   0.682E-03    0.882E-03
RMM:  53    -0.810457321670E+03   -0.18243E-05   -0.22322E-05  1147   0.650E-03    0.908E-03
RMM:  54    -0.810457323010E+03   -0.13399E-05   -0.17169E-05  1094   0.620E-03    0.929E-03
RMM:  55    -0.810457324042E+03   -0.10315E-05   -0.14017E-05  1071   0.598E-03    0.945E-03
RMM:  56    -0.810457324855E+03   -0.81280E-06   -0.11649E-05  1065   0.580E-03    0.961E-03
RMM:  57    -0.810457325430E+03   -0.57508E-06   -0.94111E-06  1046   0.566E-03
   1 F= -.81045733E+03 E0= -.81045675E+03  d E =-.810457E+03
