 vasp.5.4.4.18Apr17-6-g9f103f2a35 (build Jan 22 2020 12:49:05) complex          
  
 executed on Bebop BDW IPS19.0.5  date 2022.10.04  13:36:53
 running on   64 total cores
 distrk:  each k-point on   64 cores,    1 groups
 distr:  one band on NCORES_PER_BAND=   8 cores,    8 groups


--------------------------------------------------------------------------------------------------------


 INCAR:
 POTCAR:    PAW_PBE Li_sv 10Sep2004               
 POTCAR:    PAW_PBE P 06Sep2000                   
 POTCAR:    PAW_PBE S 06Sep2000                   
 POTCAR:    PAW_PBE Cl 06Sep2000                  
 POTCAR:    PAW_PBE Li_sv 10Sep2004               
   VRHFIN =Li: 1s2s2p                                                           
   LEXCH  = PE                                                                  
   EATOM  =   202.7858 eV,   14.9043 Ry                                         
                                                                                
   TITEL  = PAW_PBE Li_sv 10Sep2004                                             
   LULTRA =        F    use ultrasoft PP ?                                      
   IUNSCR =        0    unscreen: 0-lin 1-nonlin 2-no                           
   RPACOR =    0.000    partial core radius                                     
   POMASS =    7.010; ZVAL   =    3.000    mass and valenz                      
   RCORE  =    1.700    outmost cutoff radius                                   
   RWIGS  =    2.050; RWIGS  =    1.085    wigner-seitz radius (au A)           
   ENMAX  =  499.034; ENMIN  =  374.276 eV                                      
   ICORE  =        2    local potential                                         
   LCOR   =        T    correct aug charges                                     
   LPAW   =        T    paw PP                                                  
   EAUG   =  628.945                                                            
   RMAX   =    1.732    core radius for proj-oper                               
   RAUG   =    1.300    factor for augmentation sphere                          
   RDEP   =    1.728    radius for radial grids                                 
   RDEPT  =    1.329    core radius for aug-charge                              
                                                                                
   Atomic configuration                                                         
    4 entries                                                                   
     n  l   j            E        occ.                                          
     1  0  0.50       -51.8549   2.0000                                         
     2  0  0.50        -2.8742   1.0000                                         
     2  1  0.50        -1.3606   0.0000                                         
     3  2  1.50        -1.3606   0.0000                                         
   Description                                                                  
     l       E           TYP  RCUT    TYP  RCUT                                 
     0    -51.8548813     23  1.400                                             
     0     -2.8742052     23  1.700                                             
     1     -1.3605826     23  1.400                                             
     2     -1.3605826     23  1.400                                             
  local pseudopotential read in
  atomic valenz-charges read in
  non local Contribution for L=           0  read in
    real space projection operators read in
  non local Contribution for L=           0  read in
    real space projection operators read in
  non local Contribution for L=           1  read in
    real space projection operators read in
    PAW grid and wavefunctions read in
 
   number of l-projection  operators is LMAX  =           3
   number of lm-projection operators is LMMAX =           5
 
 POTCAR:    PAW_PBE P 06Sep2000                   
   VRHFIN =P : s2p3                                                             
   LEXCH  = PE                                                                  
   EATOM  =   176.0430 eV,   12.9388 Ry                                         
                                                                                
   TITEL  = PAW_PBE P 06Sep2000                                                 
   LULTRA =        F    use ultrasoft PP ?                                      
   IUNSCR =        1    unscreen: 0-lin 1-nonlin 2-no                           
   RPACOR =    1.500    partial core radius                                     
   POMASS =   30.974; ZVAL   =    5.000    mass and valenz                      
   RCORE  =    1.900    outmost cutoff radius                                   
   RWIGS  =    2.330; RWIGS  =    1.233    wigner-seitz radius (au A)           
   ENMAX  =  255.040; ENMIN  =  191.280 eV                                      
   ICORE  =        2    local potential                                         
   LCOR   =        T    correct aug charges                                     
   LPAW   =        T    paw PP                                                  
   EAUG   =  342.924                                                            
   DEXC   =    0.000                                                            
   RMAX   =    1.935    core radius for proj-oper                               
   RAUG   =    1.300    factor for augmentation sphere                          
   RDEP   =    1.931    radius for radial grids                                 
   RDEPT  =    1.794    core radius for aug-charge                              
                                                                                
   Atomic configuration                                                         
    6 entries                                                                   
     n  l   j            E        occ.                                          
     1  0  0.50     -2084.0982   2.0000                                         
     2  0  0.50      -173.9859   2.0000                                         
     2  1  1.50      -124.4865   6.0000                                         
     3  0  0.50       -13.9692   2.0000                                         
     3  1  0.50        -5.5067   3.0000                                         
     3  2  1.50        -5.4423   0.0000                                         
   Description                                                                  
     l       E           TYP  RCUT    TYP  RCUT                                 
     0    -13.9691527     23  1.900                                             
     0    -11.7794650     23  1.900                                             
     1     -5.5066937     23  1.900                                             
     1     -0.2556953     23  1.900                                             
     2     -5.4423304     23  1.900                                             
  local pseudopotential read in
  partial core-charges read in
  partial kinetic energy density read in
  atomic valenz-charges read in
  non local Contribution for L=           0  read in
    real space projection operators read in
  non local Contribution for L=           0  read in
    real space projection operators read in
  non local Contribution for L=           1  read in
    real space projection operators read in
  non local Contribution for L=           1  read in
    real space projection operators read in
    PAW grid and wavefunctions read in
 
   number of l-projection  operators is LMAX  =           4
   number of lm-projection operators is LMMAX =           8
 
 POTCAR:    PAW_PBE S 06Sep2000                   
   VRHFIN =S : s2p4                                                             
   LEXCH  = PE                                                                  
   EATOM  =   276.8230 eV,   20.3459 Ry                                         
                                                                                
   TITEL  = PAW_PBE S 06Sep2000                                                 
   LULTRA =        F    use ultrasoft PP ?                                      
   IUNSCR =        1    unscreen: 0-lin 1-nonlin 2-no                           
   RPACOR =    1.500    partial core radius                                     
   POMASS =   32.066; ZVAL   =    6.000    mass and valenz                      
   RCORE  =    1.900    outmost cutoff radius                                   
   RWIGS  =    2.200; RWIGS  =    1.164    wigner-seitz radius (au A)           
   ENMAX  =  258.689; ENMIN  =  194.016 eV                                      
   ICORE  =        2    local potential                                         
   LCOR   =        T    correct aug charges                                     
   LPAW   =        T    paw PP                                                  
   EAUG   =  335.092                                                            
   DEXC   =    0.000                                                            
   RMAX   =    1.942    core radius for proj-oper                               
   RAUG   =    1.300    factor for augmentation sphere                          
   RDEP   =    1.954    radius for radial grids                                 
   RDEPT  =    1.744    core radius for aug-charge                              
                                                                                
   Atomic configuration                                                         
    6 entries                                                                   
     n  l   j            E        occ.                                          
     1  0  0.50     -2405.8406   2.0000                                         
     2  0  0.50      -211.7007   2.0000                                         
     2  1  1.50      -156.4958   6.0000                                         
     3  0  0.50       -17.2562   2.0000                                         
     3  1  0.50        -7.0085   4.0000                                         
     3  2  1.50        -6.8029   0.0000                                         
   Description                                                                  
     l       E           TYP  RCUT    TYP  RCUT                                 
     0    -17.2561641     23  1.900                                             
     0    -15.8743224     23  1.900                                             
     1     -7.0085400     23  1.900                                             
     1     -2.7779785     23  1.900                                             
     2     -6.8029130     23  1.900                                             
  local pseudopotential read in
  partial core-charges read in
  partial kinetic energy density read in
  atomic valenz-charges read in
  non local Contribution for L=           0  read in
    real space projection operators read in
  non local Contribution for L=           0  read in
    real space projection operators read in
  non local Contribution for L=           1  read in
    real space projection operators read in
  non local Contribution for L=           1  read in
    real space projection operators read in
    PAW grid and wavefunctions read in
 
   number of l-projection  operators is LMAX  =           4
   number of lm-projection operators is LMMAX =           8
 
 POTCAR:    PAW_PBE Cl 06Sep2000                  
   VRHFIN =Cl: s2p5                                                             
   LEXCH  = PE                                                                  
   EATOM  =   409.7259 eV,   30.1140 Ry                                         
                                                                                
   TITEL  = PAW_PBE Cl 06Sep2000                                                
   LULTRA =        F    use ultrasoft PP ?                                      
   IUNSCR =        1    unscreen: 0-lin 1-nonlin 2-no                           
   RPACOR =    1.500    partial core radius                                     
   POMASS =   35.453; ZVAL   =    7.000    mass and valenz                      
   RCORE  =    1.900    outmost cutoff radius                                   
   RWIGS  =    2.100; RWIGS  =    1.111    wigner-seitz radius (au A)           
   ENMAX  =  262.472; ENMIN  =  196.854 eV                                      
   ICORE  =        2    local potential                                         
   LCOR   =        T    correct aug charges                                     
   LPAW   =        T    paw PP                                                  
   EAUG   =  356.192                                                            
   DEXC   =    0.000                                                            
   RMAX   =    1.945    core radius for proj-oper                               
   RAUG   =    1.300    factor for augmentation sphere                          
   RDEP   =    2.020    radius for radial grids                                 
   RDEPT  =    1.678    core radius for aug-charge                              
                                                                                
   Atomic configuration                                                         
    6 entries                                                                   
     n  l   j            E        occ.                                          
     1  0  0.50     -2751.1850   2.0000                                         
     2  0  0.50      -252.6861   2.0000                                         
     2  1  1.50      -191.6157   6.0000                                         
     3  0  0.50       -20.6916   2.0000                                         
     3  1  0.50        -8.5949   5.0000                                         
     3  2  1.50        -8.1635   0.0000                                         
   Description                                                                  
     l       E           TYP  RCUT    TYP  RCUT                                 
     0    -20.6915656     23  1.900                                             
     0    -22.0521482     23  1.900                                             
     1     -8.5948577     23  1.900                                             
     1     -5.3847331     23  1.900                                             
     2     -8.1634956     23  1.900                                             
  local pseudopotential read in
  partial core-charges read in
  partial kinetic energy density read in
  atomic valenz-charges read in
  non local Contribution for L=           0  read in
    real space projection operators read in
  non local Contribution for L=           0  read in
    real space projection operators read in
  non local Contribution for L=           1  read in
    real space projection operators read in
  non local Contribution for L=           1  read in
    real space projection operators read in
    PAW grid and wavefunctions read in
 
   number of l-projection  operators is LMAX  =           4
   number of lm-projection operators is LMMAX =           8
 

 ----------------------------------------------------------------------------- 
|                                                                             |
|  ADVICE TO THIS USER RUNNING 'VASP/VAMP'   (HEAR YOUR MASTER'S VOICE ...):  |
|                                                                             |
|      You have a (more or less) 'large supercell' and for larger cells       |
|      it might be more efficient to use real space projection opertators     |
|      So try LREAL= Auto  in the INCAR   file.                               |
|      Mind:          For very  accurate calculation you might also keep the  |
|      reciprocal projection scheme          (i.e. LREAL=.FALSE.)             |
|                                                                             |
 ----------------------------------------------------------------------------- 

  PAW_PBE Li_sv 10Sep2004               :
 energy of atom  1       EATOM= -202.7858
 kinetic energy error for atom=    0.0143 (will be added to EATOM!!)
  PAW_PBE P 06Sep2000                   :
 energy of atom  2       EATOM= -176.0430
 kinetic energy error for atom=    0.0013 (will be added to EATOM!!)
  PAW_PBE S 06Sep2000                   :
 energy of atom  3       EATOM= -276.8230
 kinetic energy error for atom=    0.0020 (will be added to EATOM!!)
  PAW_PBE Cl 06Sep2000                  :
 energy of atom  4       EATOM= -409.7259
 kinetic energy error for atom=    0.0030 (will be added to EATOM!!)
 
 
 POSCAR: New POSCAR file                         
  positions in cartesian coordinates
  No initial velocities read in
 exchange correlation table for  LEXCH =        8
   RHO(1)=    0.500       N(1)  =     2000
   RHO(2)=  100.500       N(2)  =     4000
 


--------------------------------------------------------------------------------------------------------


 ion  position               nearest neighbor table
   1  0.715  0.852  0.179- 153 2.28 191 2.48 118 2.69
   2  0.573  0.663  0.020- 158 2.45 177 2.57
   3  0.688  0.622  0.199- 118 2.41 130 2.43 165 2.58  55 2.59
   4  0.821  0.924  0.022- 151 2.17 153 2.19 155 2.58 107 2.66
   5  0.575  0.779  0.285- 191 2.32 177 2.34 171 2.42 118 2.48
   6  0.915  0.751  0.942- 156 2.36 180 2.47  59 2.50
   7  0.220  0.045  0.029- 198 2.21 178 2.58
   8  0.218  0.879  0.297- 125 2.33 202 2.36
   9  0.115  0.003  0.340- 125 2.42 123 2.58
  10  0.232  0.747  0.045- 178 2.38 201 2.44 170 2.47 159 2.53
  11  0.090  0.695  0.887- 180 2.32 144 2.35
  12  0.316  0.844  0.426- 127 2.34 125 2.35 171 2.49 172 2.68
  13  0.382  0.479  0.612- 138 2.38 208 2.38
  14  0.537  0.809  0.518- 114 2.42 115 2.64 120 2.67
  15  0.707  0.871  0.760- 150 2.19 115 2.41 116 2.63
  16  0.347  0.634  0.432- 172 2.34 120 2.58 142 2.59 157 2.65
  17  0.713  0.513  0.753- 174 2.21 176 2.56 135 2.64
  18  0.164  0.723  0.641- 144 2.12  64 2.35 141 2.47
  19  0.983  0.906  0.869- 204 2.37 155 2.54 203 2.59
  20  0.920  0.476  0.960- 133 2.32 180 2.46 167 2.52 205 2.52
  21  0.170  0.482  0.680- 181 2.25 208 2.30 143 2.34
  22  0.481  0.882  0.858- 196 2.11 187 2.62
  23  0.013  0.634  0.736-
  24  0.867  0.586  0.847- 180 2.12 135 2.31
  25  0.344  0.463  0.874- 181 2.21 160 2.41  78 2.54
  26  0.076  0.516  0.859- 205 2.22 134 2.23 180 2.44 181 2.69
  27  0.257  0.607  0.834- 197 2.25 181 2.33 159 2.48 144 2.48
  28  0.410  0.704  0.930- 158 2.43 196 2.45 197 2.53
  29  0.058  0.313  0.698- 200 2.30 134 2.31 189 2.35
  30  0.543  0.656  0.762- 117 2.32 197 2.56
  31  0.288  0.294  0.054- 160 2.14 124 2.44  34 2.48 182 2.51  32 2.57
  32  0.366  0.187  0.141-  99 2.23 182 2.34  31 2.57 194 2.60
  33  0.447  0.061  0.049- 194 2.22 182 2.35 193 2.51
  34  0.439  0.304  0.024- 182 2.24  31 2.48 160 2.49
  35  0.643  0.373  0.191- 190 2.36 165 2.60 148 2.61
  36  0.065  0.166  0.127- 123 2.30 163 2.35
  37  0.812  0.097  0.493- 199 2.29 113 2.38 207 2.49
  38  0.790  0.316  0.666- 183 2.17 174 2.23
  39  0.605  0.017  0.922- 175 2.18 193 2.27 150 2.45
  40  0.572  0.295  0.666- 103 1.77 173 2.46
  41  0.872  0.167  0.798- 152 2.20 189 2.28
  42  0.772  0.313  0.874- 133 2.14 183 2.43 167 2.67
  43  0.488  0.230  0.351- 148 2.20 122 2.41 140 2.52 145 2.58
  44  0.232  0.994  0.712- 203 2.39 187 2.51 126 2.52
  45  0.336  0.075  0.332- 145 2.32 125 2.49
  46  0.974  0.142  0.653- 189 2.56 199 2.58
  47  0.401  0.988  0.505- 145 2.54 126 2.58 119 2.59
  48  0.964  0.323  0.439- 185 2.31 129 2.34
  49  0.379  0.418  0.409- 195 2.40 138 2.47 122 2.50
  50  0.019  0.226  0.289- 123 2.11 185 2.31
  51  0.195  0.269  0.308- 124 2.35 122 2.52 123 2.61 185 2.64
  52  0.965  0.383  0.214- 164 2.41 185 2.54 163 2.56 186 2.66
  53  0.125  0.474  0.313- 185 2.23 169 2.49 131 2.50
  54  0.263  0.485  0.185- 169 2.33 124 2.44 108 2.69
  55  0.783  0.604  0.326- 130 2.27 118 2.35 154 2.48  87 2.53   3 2.59 101 2.66
  56  0.110  0.576  0.085- 169 2.43 186 2.48 201 2.48
  57  0.803  0.460  0.115- 167 1.99 164 2.30 165 2.67
  58  0.098  0.696  0.282- 169 2.31 202 2.45 131 2.56 172 2.69
  59  0.958  0.655  0.054- 201 2.31 180 2.37 186 2.48   6 2.50 156 2.59
  60  0.116  0.424  0.465- 195 2.07 143 2.46 185 2.56
  61  0.424  0.037  0.747-  93 2.21 175 2.48 187 2.54 119 2.56 192 2.62
  62  0.337  0.943  0.910- 187 2.19 178 2.44  65 2.49
  63  0.379  0.880  0.646- 127 2.23 119 2.33 187 2.36 179 2.61
  64  0.092  0.817  0.725- 144 2.19 203 2.34  18 2.35 204 2.37
  65  0.232  0.840  0.863- 178 2.42 187 2.45  62 2.49 144 2.68
  66  0.323  0.737  0.745- 197 2.12 144 2.49 179 2.61
  67  0.059  0.830  0.462- 128 2.21 188 2.61
  68  0.910  0.941  0.501- 207 2.17 188 2.62
  69  0.905  0.774  0.238- 107 2.21
  70  0.904  0.726  0.517- 206 2.24 141 2.26 188 2.36
  71  0.789  0.768  0.411- 188 2.08 206 2.18 118 2.28
  72  0.720  0.105  0.696- 113 2.35 183 2.40 150 2.41
  73  0.985  0.315  0.863- 189 2.09 133 2.46 134 2.65
  74  0.394  0.162  0.857- 175 2.17 182 2.38  91 2.56 184 2.58
  75  0.125  0.155  0.847- 189 2.32 198 2.42 184 2.47
  76  0.256  0.327  0.785- 181 2.33 184 2.57
  77  0.111  0.869  0.058- 178 2.17 155 2.22 201 2.34
  78  0.209  0.452  0.954- 160 2.22 205 2.27 181 2.49  25 2.54 159 2.55
  79  0.563  0.414  0.387- 190 2.32 138 2.52 132 2.59
  80  0.511  0.563  0.130- 165 2.36 177 2.39 158 2.52
  81  0.719  0.239  0.329- 132 2.17 161 2.38 148 2.43 147 2.64
  82  0.515  0.598  0.306- 120 2.32 157 2.39 130 2.60
  83  0.424  0.728  0.245- 171 2.28 177 2.30 170 2.38 157 2.62 111 2.71
  84  0.753  0.420  0.355- 130 2.38 164 2.43 132 2.44
  85  0.804  0.050  0.264- 161 2.48 153 2.53 147 2.56 146 2.67
  86  0.505  0.884  0.139- 191 2.14 193 2.27
  87  0.653  0.654  0.399- 118 2.42 130 2.43 120 2.52  55 2.53 206 2.61
  88  0.700  0.937  0.335- 114 2.30 147 2.40 191 2.46
  89  0.483  0.028  0.250- 194 2.30 105 2.42 191 2.49  90 2.52 145 2.52
  90  0.542  0.953  0.372- 145 2.37 191 2.41  89 2.52 114 2.54
  91  0.364  0.227  0.717- 184 2.15 139 2.43  74 2.56
  92  0.830  0.534  0.558- 206 2.48 135 2.58 136 2.64
  93  0.553  0.082  0.728-  61 2.21 192 2.29 175 2.31 150 2.58 119 2.67
  94  0.190  0.181  0.644- 200 2.24 184 2.38 126 2.64
  95  0.584  0.096  0.470- 145 2.28 113 2.42 147 2.43
  96  0.600  0.201  0.848- 173 2.30 175 2.32 183 2.57
  97  0.702  0.929  0.576- 116 1.97 113 2.01 115 2.29 114 2.29
  98  0.632  0.693  0.606- 137 1.92 117 1.94
  99  0.353  0.295  0.225- 122 2.06 124 2.10 121 2.22  32 2.23
 100  0.221  0.954  0.523- 125 2.04 126 2.15 128 2.19 127 2.20
 101  0.933  0.562  0.381- 129 1.95 154 2.14 131 2.21  55 2.66
 102  0.901  0.441  0.728- 135 1.92 134 2.05 133 2.16
 103  0.524  0.333  0.577-  40 1.77 138 1.94 140 2.21 139 2.23
 104  0.102  0.598  0.526- 143 1.99 141 2.07 131 2.23
 105  0.606  0.114  0.244- 146 1.94 148 2.02 147 2.21  89 2.42
 106  0.785  0.007  0.854- 151 1.97 149 2.01 150 2.04 152 2.05
 107  0.923  0.851  0.128- 155 2.09  69 2.21 153 2.21 156 2.26   4 2.66
 108  0.345  0.538  0.053- 158 2.14 160 2.16 159 2.22  54 2.69
 109  0.840  0.253  0.177- 163 2.05 162 2.05 161 2.07 164 2.19
 110  0.668  0.481  0.980- 168 1.93 166 1.97 165 2.06 167 2.27
 111  0.270  0.663  0.261- 172 2.04 157 2.10 170 2.11 169 2.12  83 2.71
 112  0.515  0.395  0.842- 173 1.82 176 1.97 166 2.23
 113  0.691  0.053  0.565-  97 2.01  72 2.35  37 2.38  95 2.42
 114  0.653  0.879  0.454-  97 2.29  88 2.30  14 2.42  90 2.54
 115  0.602  0.867  0.655-  97 2.29 119 2.31  15 2.41  14 2.64
 116  0.794  0.866  0.624-  97 1.97  15 2.63
 117  0.678  0.675  0.714-  98 1.94  30 2.32
 118  0.722  0.733  0.293-  71 2.28  55 2.35   3 2.41  87 2.42   5 2.48   1 2.69
 119  0.498  0.962  0.630- 115 2.31  63 2.33  61 2.56  47 2.59  93 2.67
 120  0.500  0.683  0.418- 171 2.12  82 2.32  87 2.52  16 2.58  14 2.67
 121  0.429  0.401  0.180- 190 2.01  99 2.22
 122  0.346  0.279  0.350-  99 2.06  43 2.41  49 2.50  51 2.52
 123  0.112  0.139  0.256-  50 2.11  36 2.30   9 2.58  51 2.61
 124  0.236  0.336  0.187-  99 2.10  51 2.35  54 2.44  31 2.44
 125  0.247  0.971  0.403- 100 2.04   8 2.33  12 2.35   9 2.42  45 2.49
 126  0.280  0.059  0.581- 100 2.15  44 2.52  47 2.58  94 2.64
 127  0.278  0.836  0.563- 100 2.20  63 2.23  12 2.34
 128  0.085  0.948  0.526- 100 2.19  67 2.21
 129  0.902  0.454  0.426- 101 1.95  48 2.34
 130  0.662  0.530  0.314-  55 2.27  84 2.38   3 2.43  87 2.43  82 2.60
 131  0.067  0.591  0.395- 101 2.21 104 2.23  53 2.50  58 2.56
 132  0.680  0.313  0.432- 140 1.95  81 2.17  84 2.44  79 2.59
 133  0.863  0.407  0.849-  42 2.14 102 2.16  20 2.32  73 2.46
 134  0.024  0.436  0.761- 102 2.05  26 2.23  29 2.31  73 2.65
 135  0.866  0.554  0.709- 102 1.92  24 2.31  92 2.58  17 2.64
 136  0.670  0.498  0.545- 137 2.10 174 2.17  92 2.64
 137  0.583  0.586  0.587-  98 1.92 136 2.10
 138  0.484  0.430  0.519- 103 1.94  13 2.38  49 2.47  79 2.52
 139  0.415  0.245  0.579- 192 2.14 103 2.23  91 2.43
 140  0.577  0.264  0.473- 132 1.95 103 2.21  43 2.52
 141  0.032  0.698  0.567- 104 2.07  70 2.26  18 2.47
 142  0.348  0.651  0.589- 179 2.03  16 2.59
 143  0.062  0.498  0.585- 104 1.99  21 2.34  60 2.46
 144  0.171  0.717  0.770-  18 2.12  64 2.19  11 2.35  27 2.48  66 2.49  65 2.68
 145  0.466  0.078  0.395-  95 2.28  45 2.32  90 2.37  89 2.52  47 2.54  43 2.58
 146  0.688  0.098  0.158- 105 1.94 162 2.19  85 2.67
 147  0.678  0.083  0.355- 105 2.21  88 2.40  95 2.43  85 2.56  81 2.64
 148  0.586  0.237  0.258- 105 2.02  43 2.20  81 2.43  35 2.61
 149  0.756  0.099  0.932- 106 2.01
 150  0.675  0.999  0.790- 106 2.04  15 2.19  72 2.41  39 2.45  93 2.58
 151  0.803  0.893  0.895- 106 1.97   4 2.17
 152  0.879  0.032  0.773- 106 2.05  41 2.20
 153  0.823  0.941  0.154-   4 2.19 107 2.21   1 2.28  85 2.53
 154  0.915  0.575  0.253- 101 2.14  55 2.48 186 2.50
 155  0.980  0.899  0.023- 107 2.09  77 2.22  19 2.54   4 2.58
 156  0.837  0.762  0.063- 107 2.26   6 2.36  59 2.59
 157  0.369  0.580  0.281- 111 2.10  82 2.39  83 2.62  16 2.65
 158  0.455  0.572  0.987- 108 2.14  28 2.43   2 2.45  80 2.52
 159  0.245  0.603  0.985- 108 2.22  27 2.48  10 2.53  78 2.55
 160  0.329  0.412  0.012-  31 2.14 108 2.16  78 2.22  25 2.41  34 2.49
 161  0.854  0.193  0.288- 109 2.07  81 2.38  85 2.48
 162  0.737  0.215  0.111- 109 2.05 146 2.19
 163  0.952  0.259  0.117- 109 2.05  36 2.35  52 2.56
 164  0.816  0.376  0.227- 109 2.19  57 2.30  52 2.41  84 2.43
 165  0.643  0.506  0.101- 110 2.06  80 2.36   3 2.58  35 2.60  57 2.67
 166  0.592  0.389  0.955- 110 1.97 112 2.23
 167  0.786  0.409  0.006-  57 1.99 110 2.27  20 2.52  42 2.67
 168  0.712  0.573  0.917- 110 1.93
 169  0.169  0.589  0.221- 111 2.12  58 2.31  54 2.33  56 2.43  53 2.49
 170  0.295  0.762  0.181- 111 2.11  83 2.38  10 2.47
 171  0.449  0.792  0.366- 120 2.12  83 2.28   5 2.42  12 2.49
 172  0.237  0.707  0.373- 111 2.04  16 2.34  12 2.68  58 2.69
 173  0.501  0.292  0.799- 112 1.82  96 2.30  40 2.46
 174  0.705  0.424  0.650- 136 2.17  17 2.21  38 2.23
 175  0.509  0.090  0.862-  74 2.17  39 2.18  93 2.31  96 2.32  61 2.48
 176  0.559  0.473  0.759- 112 1.97  17 2.56
 177  0.542  0.702  0.169-  83 2.30   5 2.34  80 2.39   2 2.57
 178  0.232  0.888  0.002-  77 2.17  10 2.38  65 2.42  62 2.44   7 2.58
 179  0.437  0.729  0.632- 142 2.03  66 2.61  63 2.61
 180  0.975  0.612  0.916-  24 2.12  11 2.32  59 2.37  26 2.44  20 2.46   6 2.47
 181  0.227  0.468  0.805-  25 2.21  21 2.25  27 2.33  76 2.33  78 2.49  26 2.69
 182  0.380  0.180  1.000-  34 2.24  32 2.34  33 2.35  74 2.38  31 2.51
 183  0.721  0.242  0.753-  38 2.17  72 2.40  42 2.43  96 2.57
 184  0.258  0.168  0.772-  91 2.15  94 2.38  75 2.47  76 2.57  74 2.58
 185  0.058  0.355  0.337-  53 2.23  48 2.31  50 2.31  52 2.54  60 2.56  51 2.64
 186  0.971  0.518  0.122-  59 2.48  56 2.48 154 2.50  52 2.66
 187  0.341  0.907  0.782-  62 2.19  63 2.36  65 2.45  44 2.51  61 2.54  22 2.62
 188  0.910  0.814  0.402-  71 2.08  70 2.36  67 2.61  68 2.62
 189  0.007  0.212  0.789-  73 2.09  41 2.28  75 2.32  29 2.35  46 2.56
 190  0.525  0.434  0.252- 121 2.01  79 2.32  35 2.36
 191  0.587  0.914  0.237-  86 2.14   5 2.32  90 2.41  88 2.46   1 2.48  89 2.49
 192  0.470  0.134  0.627- 139 2.14  93 2.29  61 2.62
 193  0.535  0.937  0.014-  86 2.27  39 2.27  33 2.51
 194  0.374  0.027  0.159-  33 2.22  89 2.30  32 2.60
 195  0.236  0.456  0.431-  60 2.07  49 2.40
 196  0.541  0.768  0.886-  22 2.11  28 2.45
 197  0.388  0.634  0.794-  66 2.12  27 2.25  28 2.53  30 2.56
 198  0.156  0.161  0.991-   7 2.21  75 2.42
 199  0.866  0.210  0.558-  37 2.29  46 2.58
 200  0.091  0.250  0.576-  94 2.24  29 2.30
 201  0.082  0.727  0.063-  59 2.31  77 2.34  10 2.44  56 2.48
 202  0.075  0.847  0.276-   8 2.36  58 2.45
 203  0.104  0.953  0.776-  64 2.34  44 2.39  19 2.59
 204  0.955  0.797  0.776-  19 2.37  64 2.37
 205  0.070  0.427  0.963-  26 2.22  78 2.27  20 2.52
 206  0.779  0.666  0.498-  71 2.18  70 2.24  92 2.48  87 2.61
 207  0.897  0.017  0.393-  68 2.17  37 2.49
 208  0.266  0.388  0.630-  21 2.30  13 2.38
 

IMPORTANT INFORMATION: All symmetrisations will be switched off!
NOSYMM: (Re-)initialisation of all symmetry stuff for point group C_1.

 
 
 KPOINTS: Regular mesh centered at Gamma          

Automatic generation of k-mesh.
Space group operators:
 irot       det(A)        alpha          n_x          n_y          n_z        tau_x        tau_y        tau_z
    1     1.000000     0.000001     1.000000     0.000000     0.000000     0.000000     0.000000     0.000000
 
 Subroutine IBZKPT returns following result:
 ===========================================
 
 Found      1 irreducible k-points:
 
 Following reciprocal coordinates:
            Coordinates               Weight
  0.000000  0.000000  0.000000      1.000000
 
 Following cartesian coordinates:
            Coordinates               Weight
  0.000000  0.000000  0.000000      1.000000
 


--------------------------------------------------------------------------------------------------------




 Dimension of arrays:
   k-points           NKPTS =      1   k-points in BZ     NKDIM =      1   number of bands    NBANDS=    592
   number of dos      NEDOS =    301   number of ions     NIONS =    208
   non local maximal  LDIM  =      4   non local SUM 2l+1 LMDIM =      8
   total plane-waves  NPLWV = 729000
   max r-space proj   IRMAX =      1   max aug-charges    IRDMAX=   5618
   dimension x,y,z NGX =    90 NGY =   90 NGZ =   90
   dimension x,y,z NGXF=   180 NGYF=  180 NGZF=  180
   support grid    NGXF=   180 NGYF=  180 NGZF=  180
   ions per type =              96  16  80  16
   NGX,Y,Z   is equivalent  to a cutoff of   9.34,  9.29,  9.11 a.u.
   NGXF,Y,Z  is equivalent  to a cutoff of  18.67, 18.59, 18.22 a.u.

 SYSTEM =  LPSC                                    
 POSCAR =  New POSCAR file                         

 Startparameter for this run:
   NWRITE =      2    write-flag & timer
   PREC   = normal    normal or accurate (medium, high low for compatibility)
   ISTART =      0    job   : 0-new  1-cont  2-samecut
   ICHARG =      2    charge: 1-file 2-atom 10-const
   ISPIN  =      1    spin polarized calculation?
   LNONCOLLINEAR =      F non collinear calculations
   LSORBIT =      F    spin-orbit coupling
   INIWAV =      1    electr: 0-lowe 1-rand  2-diag
   LASPH  =      F    aspherical Exc in radial PAW
   METAGGA=      F    non-selfconsistent MetaGGA calc.

 Electronic Relaxation 1
   ENCUT  =  500.0 eV  36.75 Ry    6.06 a.u.  29.22 29.35 29.95*2*pi/ulx,y,z
   ENINI  =  500.0     initial cutoff
   ENAUG  =  628.9 eV  augmentation charge cutoff
   NELM   =    100;   NELMIN=  2; NELMDL=-12     # of ELM steps 
   EDIFF  = 0.1E-05   stopping-criterion for ELM
   LREAL  =      F    real-space projection
   NLSPLINE    = F    spline interpolate recip. space projectors
   LCOMPAT=      F    compatible to vasp.4.4
   GGA_COMPAT  = T    GGA compatible to vasp.4.4-vasp.4.6
   LMAXPAW     = -100 max onsite density
   LMAXMIX     =    2 max onsite mixed and CHGCAR
   VOSKOWN=      0    Vosko Wilk Nusair interpolation
   ROPT   =    0.00000   0.00000   0.00000   0.00000
 Ionic relaxation
   EDIFFG = -.1E-01   stopping-criterion for IOM
   NSW    =      1    number of steps for IOM
   NBLOCK =      1;   KBLOCK =      1    inner block; outer block 
   IBRION =      2    ionic relax: 0-MD 1-quasi-New 2-CG
   NFREE  =      1    steps in history (QN), initial steepest desc. (CG)
   ISIF   =      2    stress and relaxation
   IWAVPR =     11    prediction:  0-non 1-charg 2-wave 3-comb
   ISYM   =      0    0-nonsym 1-usesym 2-fastsym
   LCORR  =      T    Harris-Foulkes like correction to forces

   POTIM  = 0.5000    time-step for ionic-motion
   TEIN   =    0.0    initial temperature
   TEBEG  =    0.0;   TEEND  =   0.0 temperature during run
   SMASS  =  -3.00    Nose mass-parameter (am)
   estimated Nose-frequenzy (Omega)   =  0.10E-29 period in steps =****** mass=  -0.587E-26a.u.
   SCALEE = 1.0000    scale energy and forces
   NPACO  =    256;   APACO  = 16.0  distance and # of slots for P.C.
   PSTRESS=    0.0 pullay stress

  Mass of Ions in am
   POMASS =   7.01 30.97 32.07 35.45
  Ionic Valenz
   ZVAL   =   3.00  5.00  6.00  7.00
  Atomic Wigner-Seitz radii
   RWIGS  =  -1.00 -1.00 -1.00 -1.00
  virtual crystal weights 
   VCA    =   1.00  1.00  1.00  1.00
   NELECT =     960.0000    total number of electrons
   NUPDOWN=      -1.0000    fix difference up-down

 DOS related values:
   EMIN   =  10.00;   EMAX   =-10.00  energy-range for DOS
   EFERMI =   0.00
   ISMEAR =     0;   SIGMA  =   0.05  broadening in eV -4-tet -1-fermi 0-gaus

 Electronic relaxation 2 (details)
   IALGO  =     48    algorithm
   LDIAG  =      T    sub-space diagonalisation (order eigenvalues)
   LSUBROT=      F    optimize rotation matrix (better conditioning)
   TURBO    =      0    0=normal 1=particle mesh
   IRESTART =      0    0=no restart 2=restart with 2 vectors
   NREBOOT  =      0    no. of reboots
   NMIN     =      0    reboot dimension
   EREF     =   0.00    reference energy to select bands
   IMIX   =      4    mixing-type and parameters
     AMIX     =   0.40;   BMIX     =  1.00
     AMIX_MAG =   1.60;   BMIX_MAG =  1.00
     AMIN     =   0.10
     WC   =   100.;   INIMIX=   1;  MIXPRE=   1;  MAXMIX= -45

 Intra band minimization:
   WEIMIN = 0.0010     energy-eigenvalue tresh-hold
   EBREAK =  0.42E-09  absolut break condition
   DEPER  =   0.30     relativ break condition  

   TIME   =   0.40     timestep for ELM

  volume/ion in A,a.u.               =      20.38       137.50
  Fermi-wavevector in a.u.,A,eV,Ry     =   0.997951  1.885854 13.550121  0.995906
  Thomas-Fermi vector in A             =   2.130142
 
 Write flags
   LWAVE        =      F    write WAVECAR
   LDOWNSAMPLE  =      F    k-point downsampling of WAVECAR
   LCHARG       =      F    write CHGCAR
   LVTOT        =      F    write LOCPOT, total local potential
   LVHAR        =      F    write LOCPOT, Hartree potential only
   LELF         =      F    write electronic localiz. function (ELF)
   LORBIT       =     11    0 simple, 1 ext, 2 COOP (PROOUT), +10 PAW based schemes


 Dipole corrections
   LMONO  =      F    monopole corrections only (constant potential shift)
   LDIPOL =      F    correct potential (dipole corrections)
   IDIPOL =      0    1-x, 2-y, 3-z, 4-all directions 
   EPSILON=  1.0000000 bulk dielectric constant

 Exchange correlation treatment:
   GGA     =    --    GGA type
   LEXCH   =     8    internal setting for exchange type
   VOSKOWN=      0    Vosko Wilk Nusair interpolation
   LHFCALC =     F    Hartree Fock is set to
   LHFONE  =     F    Hartree Fock one center treatment
   AEXX    =    0.0000 exact exchange contribution

 Linear response parameters
   LEPSILON=     F    determine dielectric tensor
   LRPA    =     F    only Hartree local field effects (RPA)
   LNABLA  =     F    use nabla operator in PAW spheres
   LVEL    =     F    velocity operator in full k-point grid
   LINTERFAST=   F  fast interpolation
   KINTER  =     0    interpolate to denser k-point grid
   CSHIFT  =0.1000    complex shift for real part using Kramers Kronig
   OMEGAMAX=  -1.0    maximum frequency
   DEG_THRESHOLD= 0.2000000E-02 threshold for treating states as degnerate
   RTIME   =   -0.100 relaxation time in fs
  (WPLASMAI=    0.000 imaginary part of plasma frequency in eV, 0.658/RTIME)
   DFIELD  = 0.0000000 0.0000000 0.0000000 field for delta impulse in time
 
 Orbital magnetization related:
   ORBITALMAG=     F  switch on orbital magnetization
   LCHIMAG   =     F  perturbation theory with respect to B field
   DQ        =  0.001000  dq finite difference perturbation B field
   LLRAUG    =     F  two centre corrections for induced B field



--------------------------------------------------------------------------------------------------------


 conjugate gradient relaxation of ions
 charge density and potential will be updated during run
 non-spin polarized calculation
 RMM-DIIS sequential band-by-band
 perform sub-space diagonalisation
    before iterative eigenvector-optimisation
 modified Broyden-mixing scheme, WC =      100.0
 initial mixing is a Kerker type mixing with AMIX =  0.4000 and BMIX =      1.0000
 Hartree-type preconditioning will be used
 using additional bands          112
 reciprocal scheme for non local part
 use partial core corrections
 calculate Harris-corrections to forces 
   (improved forces if not selfconsistent)
 use gradient corrections 
 use of overlap-Matrix (Vanderbilt PP)
 Gauss-broadening in eV      SIGMA  =   0.05


--------------------------------------------------------------------------------------------------------


  energy-cutoff  :      500.00
  volume of cell :     4238.07
      direct lattice vectors                 reciprocal lattice vectors
    16.026082000  0.000000000  0.000000000     0.062398283  0.000000000  0.000000000
     0.000000000 16.100000000  0.000000000     0.000000000  0.062111801  0.000000000
     0.000000000  0.000000000 16.425367000     0.000000000  0.000000000  0.060881440

  length of vectors
    16.026082000 16.100000000 16.425367000     0.062398283  0.062111801  0.060881440


 
 k-points in units of 2pi/SCALE and weight: Regular mesh centered at Gamma          
   0.00000000  0.00000000  0.00000000       1.000
 
 k-points in reciprocal lattice and weights: Regular mesh centered at Gamma          
   0.00000000  0.00000000  0.00000000       1.000
 
 position of ions in fractional coordinates (direct lattice) 
   0.71534640  0.85195652  0.17898839
   0.57269643  0.66342236  0.02039151
   0.68842154  0.62219876  0.19946160
   0.82089309  0.92354037  0.02219476
   0.57501515  0.77925466  0.28540793
   0.91535785  0.75142857  0.94174456
   0.21962823  0.04500863  0.02855364
   0.21765582  0.87898137  0.29665517
   0.11463376  0.00331590  0.33973366
   0.23203800  0.74663354  0.04517494
   0.08959457  0.69453416  0.88714000
   0.31557869  0.84357143  0.42574756
   0.38169279  0.47899317  0.61219941
   0.53701398  0.80867702  0.51839572
   0.70703494  0.87105590  0.75972732
   0.34688017  0.63370807  0.43234042
   0.71291910  0.51299627  0.75297557
   0.16411060  0.72346584  0.64092327
   0.98342190  0.90565217  0.86921041
   0.92049947  0.47633043  0.96001508
   0.16986435  0.48172422  0.68015527
   0.48130479  0.88176398  0.85825175
   0.01301653  0.63366460  0.73568524
   0.86698046  0.58578261  0.84653207
   0.34442479  0.46295466  0.87441577
   0.07629625  0.51558137  0.85940850
   0.25714083  0.60671615  0.83406356
   0.40959044  0.70418012  0.92994574
   0.05757864  0.31258944  0.69811530
   0.54301544  0.65621118  0.76207125
   0.28801675  0.29360373  0.05418296
   0.36624360  0.18684845  0.14146655
   0.44723533  0.06112478  0.04923385
   0.43929390  0.30425776  0.02353634
   0.64328262  0.37310870  0.19079391
   0.06485366  0.16557453  0.12668575
   0.81198886  0.09683602  0.49260574
   0.79036785  0.31610932  0.66623778
   0.60512669  0.01662329  0.92209812
   0.57175360  0.29543043  0.66638998
   0.87221568  0.16674720  0.79765645
   0.77214755  0.31303230  0.87415398
   0.48801448  0.23021615  0.35088653
   0.23168420  0.99389441  0.71234329
   0.33649959  0.07543043  0.33206442
   0.97438039  0.14177267  0.65258816
   0.40145371  0.98772671  0.50547668
   0.96405347  0.32294161  0.43891196
   0.37894165  0.41815031  0.40881948
   0.01947226  0.22587640  0.28901516
   0.19465456  0.26851304  0.30789327
   0.96541999  0.38266273  0.21423692
   0.12531510  0.47393106  0.31296835
   0.26255575  0.48462919  0.18547653
   0.78261175  0.60393602  0.32615405
   0.10971241  0.57640807  0.08497284
   0.80289119  0.46028944  0.11482240
   0.09767765  0.69649068  0.28174226
   0.95760773  0.65507453  0.05365427
   0.11635969  0.42371429  0.46538930
   0.42390024  0.03672037  0.74684480
   0.33744679  0.94271429  0.91022624
   0.37892980  0.88024845  0.64567811
   0.09173484  0.81745963  0.72495793
   0.23180962  0.83993789  0.86267783
   0.32272642  0.73690683  0.74451913
   0.05928255  0.82993168  0.46223381
   0.90991672  0.94145342  0.50149869
   0.90478758  0.77416770  0.23787718
   0.90397017  0.72613665  0.51665695
   0.78935700  0.76752795  0.41095094
   0.72002003  0.10500373  0.69566178
   0.98506921  0.31544783  0.86289092
   0.39431035  0.16212112  0.85657751
   0.12530262  0.15477888  0.84708610
   0.25554718  0.32746460  0.78488353
   0.11069331  0.86942236  0.05838335
   0.20926450  0.45171615  0.95437746
   0.56336976  0.41440745  0.38739591
   0.51080545  0.56261304  0.13029298
   0.71947092  0.23939814  0.32882675
   0.51491562  0.59775342  0.30566684
   0.42440379  0.72818012  0.24482254
   0.75286024  0.42049752  0.35480790
   0.80361501  0.04955224  0.26443793
   0.50530130  0.88421118  0.13855398
   0.65291067  0.65385093  0.39867785
   0.70047689  0.93711180  0.33512980
   0.48264760  0.02809870  0.25041450
   0.54151414  0.95309317  0.37197586
   0.36428430  0.22735404  0.71740863
   0.83044627  0.53377516  0.55760641
   0.55281072  0.08215901  0.72845252
   0.19037779  0.18090373  0.64438134
   0.58416836  0.09595590  0.47035053
   0.59976169  0.20116335  0.84763403
   0.70160629  0.92933540  0.57603218
   0.63230676  0.69324224  0.60633592
   0.35341202  0.29505093  0.22540684
   0.22149019  0.95421739  0.52335695
   0.93260474  0.56193602  0.38144110
   0.90056946  0.44124596  0.72788024
   0.52350163  0.33292795  0.57704647
   0.10213351  0.59811863  0.52574107
   0.60639463  0.11396708  0.24442376
   0.78462721  0.00666522  0.85428228
   0.92337603  0.85086957  0.12798923
   0.34537450  0.53846770  0.05344964
   0.84004312  0.25254907  0.17670899
   0.66816705  0.48149689  0.98028860
   0.26968788  0.66265839  0.26118564
   0.51490127  0.39545031  0.84178941
   0.69131058  0.05328963  0.56490975
   0.65303547  0.87946584  0.45434540
   0.60211286  0.86662733  0.65488948
   0.79409303  0.86614286  0.62433308
   0.67808214  0.67497516  0.71401753
   0.72225389  0.73262733  0.29330425
   0.49770306  0.96212422  0.62967238
   0.49957251  0.68293168  0.41848136
   0.42899818  0.40139130  0.18040145
   0.34579069  0.27916832  0.34967377
   0.11236683  0.13885776  0.25616536
   0.23551670  0.33581366  0.18743873
   0.24735927  0.97088199  0.40265706
   0.27965725  0.05943484  0.58090331
   0.27760185  0.83641615  0.56316854
   0.08520361  0.94780124  0.52579099
   0.90190478  0.45394783  0.42570251
   0.66228290  0.53034286  0.31390653
   0.06697145  0.59123106  0.39456592
   0.68015376  0.31318820  0.43222718
   0.86284970  0.40724224  0.84948482
   0.02402914  0.43645155  0.76054313
   0.86636896  0.55380745  0.70923834
   0.67049451  0.49805155  0.54509163
   0.58332411  0.58596025  0.58681307
   0.48376827  0.43029503  0.51870744
   0.41532484  0.24544286  0.57898493
   0.57699006  0.26400000  0.47318699
   0.03222054  0.69790062  0.56673072
   0.34769634  0.65059006  0.58893661
   0.06211393  0.49758199  0.58502194
   0.17109547  0.71695031  0.76991278
   0.46606713  0.07765714  0.39493851
   0.68754796  0.09775901  0.15800865
   0.67833797  0.08324472  0.35537958
   0.58648021  0.23741242  0.25775862
   0.75626719  0.09938075  0.93182697
   0.67536158  0.99944099  0.79044200
   0.80331550  0.89333540  0.89482932
   0.87855534  0.03235919  0.77309079
   0.82293976  0.94083230  0.15445317
   0.91493978  0.57474783  0.25288567
   0.97989640  0.89875155  0.02346170
   0.83696689  0.76162733  0.06276816
   0.36890426  0.57996646  0.28136784
   0.45509626  0.57210373  0.98682118
   0.24545176  0.60307640  0.98453812
   0.32861182  0.41248571  0.01177057
   0.85396418  0.19315652  0.28798991
   0.73744787  0.21496584  0.11146113
   0.95236003  0.25909689  0.11723147
   0.81564540  0.37589130  0.22719492
   0.64314534  0.50579627  0.10090733
   0.59246047  0.38882360  0.95451749
   0.78645548  0.40881863  0.00583297
   0.71229512  0.57257081  0.91737981
   0.16857520  0.58870559  0.22053328
   0.29547584  0.76181366  0.18145348
   0.44893817  0.79228571  0.36591937
   0.23657248  0.70741615  0.37298284
   0.50101890  0.29211615  0.79946463
   0.70503820  0.42439689  0.65037207
   0.50879747  0.08981118  0.86195334
   0.55874543  0.47282547  0.75949597
   0.54212003  0.70183230  0.16945314
   0.23154568  0.88771429  0.00205460
   0.43660203  0.72921118  0.63156580
   0.97467990  0.61247019  0.91622915
   0.22686206  0.46821739  0.80451779
   0.38018213  0.18039876  0.99984372
   0.72117440  0.24181739  0.75320691
   0.25818974  0.16836025  0.77246980
   0.05813174  0.35537826  0.33698790
   0.97127919  0.51839938  0.12215313
   0.34064658  0.90746584  0.78155331
   0.90961721  0.81447826  0.40189726
   0.00665652  0.21178385  0.78878603
   0.52505534  0.43404286  0.25248386
   0.58658816  0.91398137  0.23736334
   0.46985096  0.13401925  0.62676834
   0.53477512  0.93733540  0.01370788
   0.37401156  0.02651348  0.15867469
   0.23587674  0.45608571  0.43050119
   0.54081465  0.76844099  0.88637898
   0.38830264  0.63420497  0.79376004
   0.15603315  0.16053975  0.99145425
   0.86621296  0.21045031  0.55776897
   0.09116015  0.25020932  0.57648514
   0.08234889  0.72671429  0.06345612
   0.07527417  0.84718634  0.27628789
   0.10415022  0.95285093  0.77554432
   0.95460637  0.79742857  0.77555040
   0.06999590  0.42732050  0.96279127
   0.77921728  0.66558385  0.49817821
   0.89730603  0.01717081  0.39264998
   0.26601823  0.38840807  0.63022032
 
 position of ions in cartesian coordinates  (Angst):
  11.46420000 13.71650000  2.93995000
   9.17808000 10.68110000  0.33493800
  11.03270000 10.01740000  3.27623000
  13.15570000 14.86900000  0.36455700
   9.21524000 12.54600000  4.68793000
  14.66960000 12.09800000 15.46850000
   3.51978000  0.72463900  0.46900400
   3.48817000 14.15160000  4.87267000
   1.83713000  0.05338600  5.58025000
   3.71866000 12.02080000  0.74201500
   1.43585000 11.18200000 14.57160000
   5.05749000 13.58150000  6.99306000
   6.11704000  7.71179000 10.05560000
   8.60623000 13.01970000  8.51484000
  11.33100000 14.02400000 12.47880000
   5.55913000 10.20270000  7.10135000
  11.42530000  8.25924000 12.36790000
   2.63005000 11.64780000 10.52740000
  15.76040000 14.58100000 14.27710000
  14.75200000  7.66892000 15.76860000
   2.72226000  7.75576000 11.17180000
   7.71343000 14.19640000 14.09710000
   0.20860400 10.20200000 12.08390000
  13.89430000  9.43110000 13.90460000
   5.51978000  7.45357000 14.36260000
   1.22273000  8.30086000 14.11610000
   4.12096000  9.76813000 13.69980000
   6.56413000 11.33730000 15.27470000
   0.92276000  5.03269000 11.46680000
   8.70241000 10.56500000 12.51730000
   4.61578000  4.72702000  0.88997500
   5.86945000  3.00826000  2.32364000
   7.16743000  0.98410900  0.80868400
   7.04016000  4.89855000  0.38659300
  10.30930000  6.00705000  3.13386000
   1.03935000  2.66575000  2.08086000
  13.01300000  1.55906000  8.09123000
  12.66650000  5.08936000 10.94320000
   9.69781000  0.26763500 15.14580000
   9.16297000  4.75643000 10.94570000
  13.97820000  2.68463000 13.10180000
  12.37450000  5.03982000 14.35830000
   7.82096000  3.70648000  5.76344000
   3.71299000 16.00170000 11.70050000
   5.39277000  1.21443000  5.45428000
  15.61550000  2.28254000 10.71900000
   6.43373000 15.90240000  8.30264000
  15.45000000  5.19936000  7.20929000
   6.07295000  6.73222000  6.71501000
   0.31206400  3.63661000  4.74718000
   3.11955000  4.32306000  5.05726000
  15.47190000  6.16087000  3.51892000
   2.00831000  7.63029000  5.14062000
   4.20774000  7.80253000  3.04652000
  12.54220000  9.72337000  5.35720000
   1.75826000  9.28017000  1.39571000
  12.86720000  7.41066000  1.88600000
   1.56539000 11.21350000  4.62772000
  15.34670000 10.54670000  0.88129100
   1.86479000  6.82180000  7.64419000
   6.79346000  0.59119800 12.26720000
   5.40795000 15.17770000 14.95080000
   6.07276000 14.17200000 10.60550000
   1.47015000 13.16110000 11.90770000
   3.71500000 13.52300000 14.16980000
   5.17204000 11.86420000 12.22900000
   0.95006700 13.36190000  7.59236000
  14.58240000 15.15740000  8.23730000
  14.50020000 12.46410000  3.90722000
  14.48710000 11.69080000  8.48628000
  12.65030000 12.35720000  6.75002000
  11.53910000  1.69056000 11.42650000
  15.78680000  5.07871000 14.17330000
   6.31925000  2.61015000 14.06960000
   2.00811000  2.49194000 13.91370000
   4.09542000  5.27218000 12.89200000
   1.77398000 13.99770000  0.95896800
   3.35369000  7.27263000 15.67600000
   9.02861000  6.67196000  6.36312000
   8.18621000  9.05807000  2.14011000
  11.53030000  3.85431000  5.40110000
   8.25208000  9.62383000  5.02069000
   6.80153000 11.72370000  4.02130000
  12.06540000  6.77001000  5.82785000
  12.87880000  0.79779100  4.34349000
   8.09800000 14.23580000  2.27580000
  10.46360000 10.52700000  6.54843000
  11.22590000 15.08750000  5.50463000
   7.73495000  0.45238900  4.11315000
   8.67835000 15.34480000  6.10984000
   5.83805000  3.66040000 11.78370000
  13.30880000  8.59378000  9.15889000
   8.85939000  1.32276000 11.96510000
   3.05101000  2.91255000 10.58420000
   9.36193000  1.54489000  7.72568000
   9.61183000  3.23873000 13.92270000
  11.24400000 14.96230000  9.46154000
  10.13340000 11.16120000  9.95929000
   5.66381000  4.75032000  3.70239000
   3.54962000 15.36290000  8.59633000
  14.94600000  9.04717000  6.26531000
  14.43260000  7.10406000 11.95570000
   8.38968000  5.36014000  9.47820000
   1.63680000  9.62971000  8.63549000
   9.71813000  1.83487000  4.01475000
  12.57450000  0.10731000 14.03190000
  14.79810000 13.69900000  2.10227000
   5.53500000  8.66933000  0.87793000
  13.46260000  4.06604000  2.90251000
  10.70810000  7.75210000 16.10160000
   4.32204000 10.66880000  4.29007000
   8.25185000  6.36675000 13.82670000
  11.07900000  0.85796300  9.27885000
  10.46560000 14.15940000  7.46279000
   9.64951000 13.95270000 10.75680000
  12.72620000 13.94490000 10.25490000
  10.86700000 10.86710000 11.72800000
  11.57490000 11.79530000  4.81763000
   7.97623000 15.49020000 10.34260000
   8.00619000 10.99520000  6.87371000
   6.87516000  6.46240000  2.96316000
   5.54167000  4.49461000  5.74352000
   1.80080000  2.23561000  4.20761000
   3.77441000  5.40660000  3.07875000
   3.96420000 15.63120000  6.61379000
   4.48181000  0.95690100  9.54155000
   4.44887000 13.46630000  9.25025000
   1.36548000 15.25960000  8.63631000
  14.45400000  7.30856000  6.99232000
  10.61380000  8.53852000  5.15603000
   1.07329000  9.51882000  6.48089000
  10.90020000  5.04233000  7.09949000
  13.82810000  6.55660000 13.95310000
   0.38509300  7.02687000 12.49220000
  13.88450000  8.91630000 11.64950000
  10.74540000  8.01863000  8.95333000
   9.34840000  9.43396000  9.63862000
   7.75291000  6.92775000  8.51996000
   6.65603000  3.95163000  9.51004000
   9.24689000  4.25040000  7.77227000
   0.51636900 11.23620000  9.30876000
   5.57221000 10.47450000  9.67350000
   0.99544300  8.01107000  9.60920000
   2.74199000 11.54290000 12.64610000
   7.46923000  1.25028000  6.48701000
  11.01870000  1.57392000  2.59535000
  10.87110000  1.34024000  5.83724000
   9.39898000  3.82234000  4.23378000
  12.12000000  1.60003000 15.30560000
  10.82340000 16.09100000 12.98330000
  12.87400000 14.38270000 14.69790000
  14.07980000  0.52098300 12.69830000
  13.18850000 15.14740000  2.53695000
  14.66290000  9.25344000  4.15374000
  15.70390000 14.46990000  0.38536700
  13.41330000 12.26220000  1.03099000
   5.91209000  9.33746000  4.62157000
   7.29341000  9.21087000 16.20890000
   3.93363000  9.70953000 16.17140000
   5.26636000  6.64102000  0.19333600
  13.68570000  3.10982000  4.73034000
  11.81840000  3.46095000  1.83079000
  15.26260000  4.17146000  1.92557000
  13.07160000  6.05185000  3.73176000
  10.30710000  8.14332000  1.65744000
   9.49482000  6.26006000 15.67830000
  12.60380000  6.58198000  0.09580870
  11.41530000  9.21839000 15.06830000
   2.70160000  9.47816000  3.62234000
   4.73532000 12.26520000  2.98044000
   7.19472000 12.75580000  6.01036000
   3.79133000 11.38940000  6.12638000
   8.02937000  4.70307000 13.13150000
  11.29900000  6.83279000 10.68260000
   8.15403000  1.44596000 14.15790000
   8.95450000  7.61249000 12.47500000
   8.68806000 11.29950000  2.78333000
   3.71077000 14.29220000  0.03374750
   6.99702000 11.74030000 10.37370000
  15.62030000  9.86077000 15.04940000
   3.63571000  7.53830000 13.21450000
   6.09283000  2.90442000 16.42280000
  11.55760000  3.89326000 12.37170000
   4.13777000  2.71060000 12.68810000
   0.93162400  5.72159000  5.53515000
  15.56580000  8.34623000  2.00641000
   5.45923000 14.61020000 12.83730000
  14.57760000 13.11310000  6.60131000
   0.10667800  3.40972000 12.95610000
   8.41458000  6.98809000  4.14714000
   9.40071000 14.71510000  3.89878000
   7.52987000  2.15771000 10.29490000
   8.57035000 15.09110000  0.22515700
   5.99394000  0.42686700  2.60629000
   3.78018000  7.34298000  7.07114000
   8.66714000 12.37190000 14.55910000
   6.22297000 10.21070000 13.03780000
   2.50060000  2.58469000 16.28500000
  13.88200000  3.38825000  9.16156000
   1.46094000  4.02837000  9.46898000
   1.31973000 11.70010000  1.04229000
   1.20635000 13.63970000  4.53813000
   1.66912000 15.34090000 12.73860000
  15.29860000 12.83860000 12.73870000
   1.12176000  6.87986000 15.81420000
  12.48780000 10.71590000  8.18276000
  14.38030000  0.27645000  6.44942000
   4.26323000  6.25337000 10.35160000
 


--------------------------------------------------------------------------------------------------------


 k-point  1 :   0.0000 0.0000 0.0000  plane waves:  107615

 maximum and minimum number of plane-waves per node :     13456    13445

 maximum number of plane-waves:    107615
 maximum index in each direction: 
   IXMAX=   29   IYMAX=   29   IZMAX=   29
   IXMIN=  -29   IYMIN=  -29   IZMIN=  -29


 parallel 3D FFT for wavefunctions:
    minimum data exchange during FFTs selected (reduces bandwidth)
 parallel 3D FFT for charge:
    minimum data exchange during FFTs selected (reduces bandwidth)


 total amount of memory used by VASP MPI-rank0   111673. kBytes
=======================================================================

   base      :      30000. kBytes
   nonl-proj :      48226. kBytes
   fftplans  :       6264. kBytes
   grid      :      10964. kBytes
   one-center:         79. kBytes
   wavefun   :      16140. kBytes
 
     INWAV:  cpu time    0.0000: real time    0.0000
 Broyden mixing: mesh for mixing (old mesh)
   NGX = 59   NGY = 59   NGZ = 59
  (NGX  =180   NGY  =180   NGZ  =180)
  gives a total of 205379 points

 initial charge density was supplied:
 charge density of overlapping atoms calculated
 number of electron     960.0000000 magnetization 
 keeping initial charge density in first step


--------------------------------------------------------------------------------------------------------


 Maximum index for augmentation-charges          361 (set IRDMAX)


--------------------------------------------------------------------------------------------------------


 First call to EWALD:  gamma=   0.110
 Maximum number of real-space cells 3x 3x 3
 Maximum number of reciprocal cells 3x 3x 3

    FEWALD:  cpu time    0.0253: real time    0.0255


--------------------------------------- Iteration      1(   1)  ---------------------------------------


    POTLOK:  cpu time    0.0848: real time    0.0859
    SETDIJ:  cpu time    0.0081: real time    0.0083
    EDDIAG:  cpu time    0.9689: real time    0.9709
  RMM-DIIS:  cpu time    5.4408: real time    5.4453
    ORTHCH:  cpu time    0.2639: real time    0.2639
       DOS:  cpu time    0.0008: real time    0.0008
    --------------------------------------------
      LOOP:  cpu time    6.7672: real time    6.7751

 eigenvalue-minimisations  :   592
 total energy-change (2. order) :-0.3856821E+04  (-0.4704941E+05)
 number of electron     960.0000000 magnetization 
 augmentation part      960.0000000 magnetization 

 Free energy of the ion-electron system (eV)
  ---------------------------------------------------
  alpha Z        PSCENC =       804.77846877
  Ewald energy   TEWEN  =    -29702.44958505
  -Hartree energ DENC   =    -12534.43991952
  -exchange      EXHF   =         0.00000000
  -V(xc)+E(xc)   XCENC  =      2534.59776410
  PAW double counting   =     32496.41603574   -33591.34861692
  entropy T*S    EENTRO =        -0.05038778
  eigenvalues    EBANDS =    -14848.31022659
  atomic energy  EATOM  =     50983.98519967
  Solvation  Ediel_sol  =         0.00000000
  ---------------------------------------------------
  free energy    TOTEN  =     -3856.82126758 eV

  energy without entropy =    -3856.77087980  energy(sigma->0) =    -3856.79607369


--------------------------------------------------------------------------------------------------------




--------------------------------------- Iteration      1(   2)  ---------------------------------------


    EDDIAG:  cpu time    0.9432: real time    0.9584
  RMM-DIIS:  cpu time    5.4868: real time    5.4916
    ORTHCH:  cpu time    0.2611: real time    0.2618
       DOS:  cpu time    0.0007: real time    0.0007
    --------------------------------------------
      LOOP:  cpu time    6.6918: real time    6.7124

 eigenvalue-minimisations  :   592
 total energy-change (2. order) : 0.6240092E+04  (-0.7354342E+04)
 number of electron     960.0000000 magnetization 
 augmentation part      960.0000000 magnetization 

 Free energy of the ion-electron system (eV)
  ---------------------------------------------------
  alpha Z        PSCENC =       804.77846877
  Ewald energy   TEWEN  =    -29702.44958505
  -Hartree energ DENC   =    -12534.43991952
  -exchange      EXHF   =         0.00000000
  -V(xc)+E(xc)   XCENC  =      2534.59776410
  PAW double counting   =     32496.41603574   -33591.34861692
  entropy T*S    EENTRO =        -0.08426136
  eigenvalues    EBANDS =     -8608.18459245
  atomic energy  EATOM  =     50983.98519967
  Solvation  Ediel_sol  =         0.00000000
  ---------------------------------------------------
  free energy    TOTEN  =      2383.27049298 eV

  energy without entropy =     2383.35475434  energy(sigma->0) =     2383.31262366


--------------------------------------------------------------------------------------------------------




--------------------------------------- Iteration      1(   3)  ---------------------------------------


    EDDIAG:  cpu time    0.9609: real time    0.9617
  RMM-DIIS:  cpu time    5.4652: real time    5.4691
    ORTHCH:  cpu time    0.2676: real time    0.2676
       DOS:  cpu time    0.0006: real time    0.0006
    --------------------------------------------
      LOOP:  cpu time    6.6943: real time    6.6990

 eigenvalue-minimisations  :   592
 total energy-change (2. order) :-0.1593258E+04  (-0.2338514E+04)
 number of electron     960.0000000 magnetization 
 augmentation part      960.0000000 magnetization 

 Free energy of the ion-electron system (eV)
  ---------------------------------------------------
  alpha Z        PSCENC =       804.77846877
  Ewald energy   TEWEN  =    -29702.44958505
  -Hartree energ DENC   =    -12534.43991952
  -exchange      EXHF   =         0.00000000
  -V(xc)+E(xc)   XCENC  =      2534.59776410
  PAW double counting   =     32496.41603574   -33591.34861692
  entropy T*S    EENTRO =        -0.08259317
  eigenvalues    EBANDS =    -10201.44419696
  atomic energy  EATOM  =     50983.98519967
  Solvation  Ediel_sol  =         0.00000000
  ---------------------------------------------------
  free energy    TOTEN  =       790.01255667 eV

  energy without entropy =      790.09514984  energy(sigma->0) =      790.05385325


--------------------------------------------------------------------------------------------------------




--------------------------------------- Iteration      1(   4)  ---------------------------------------


    EDDIAG:  cpu time    0.9608: real time    0.9623
  RMM-DIIS:  cpu time    5.4617: real time    5.4635
    ORTHCH:  cpu time    0.2637: real time    0.2637
       DOS:  cpu time    0.0006: real time    0.0006
    --------------------------------------------
      LOOP:  cpu time    6.6867: real time    6.6900

 eigenvalue-minimisations  :   592
 total energy-change (2. order) :-0.8276809E+03  (-0.8297722E+03)
 number of electron     960.0000000 magnetization 
 augmentation part      960.0000000 magnetization 

 Free energy of the ion-electron system (eV)
  ---------------------------------------------------
  alpha Z        PSCENC =       804.77846877
  Ewald energy   TEWEN  =    -29702.44958505
  -Hartree energ DENC   =    -12534.43991952
  -exchange      EXHF   =         0.00000000
  -V(xc)+E(xc)   XCENC  =      2534.59776410
  PAW double counting   =     32496.41603574   -33591.34861692
  entropy T*S    EENTRO =        -0.02385022
  eigenvalues    EBANDS =    -11029.18385560
  atomic energy  EATOM  =     50983.98519967
  Solvation  Ediel_sol  =         0.00000000
  ---------------------------------------------------
  free energy    TOTEN  =       -37.66835902 eV

  energy without entropy =      -37.64450881  energy(sigma->0) =      -37.65643391


--------------------------------------------------------------------------------------------------------




--------------------------------------- Iteration      1(   5)  ---------------------------------------


    EDDIAG:  cpu time    0.9724: real time    0.9730
  RMM-DIIS:  cpu time    5.4918: real time    5.4939
    ORTHCH:  cpu time    0.2622: real time    0.2623
       DOS:  cpu time    0.0004: real time    0.0004
    --------------------------------------------
      LOOP:  cpu time    6.7268: real time    6.7295

 eigenvalue-minimisations  :   592
 total energy-change (2. order) :-0.3594339E+03  (-0.3291374E+03)
 number of electron     960.0000000 magnetization 
 augmentation part      960.0000000 magnetization 

 Free energy of the ion-electron system (eV)
  ---------------------------------------------------
  alpha Z        PSCENC =       804.77846877
  Ewald energy   TEWEN  =    -29702.44958505
  -Hartree energ DENC   =    -12534.43991952
  -exchange      EXHF   =         0.00000000
  -V(xc)+E(xc)   XCENC  =      2534.59776410
  PAW double counting   =     32496.41603574   -33591.34861692
  entropy T*S    EENTRO =        -0.00000000
  eigenvalues    EBANDS =    -11388.64156227
  atomic energy  EATOM  =     50983.98519967
  Solvation  Ediel_sol  =         0.00000000
  ---------------------------------------------------
  free energy    TOTEN  =      -397.10221548 eV

  energy without entropy =     -397.10221548  energy(sigma->0) =     -397.10221548


--------------------------------------------------------------------------------------------------------




--------------------------------------- Iteration      1(   6)  ---------------------------------------


    EDDIAG:  cpu time    0.9763: real time    0.9780
  RMM-DIIS:  cpu time    5.5241: real time    5.5272
    ORTHCH:  cpu time    0.2610: real time    0.2610
       DOS:  cpu time    0.0003: real time    0.0003
    --------------------------------------------
      LOOP:  cpu time    6.7618: real time    6.7666

 eigenvalue-minimisations  :   592
 total energy-change (2. order) :-0.1521555E+03  (-0.1394238E+03)
 number of electron     960.0000000 magnetization 
 augmentation part      960.0000000 magnetization 

 Free energy of the ion-electron system (eV)
  ---------------------------------------------------
  alpha Z        PSCENC =       804.77846877
  Ewald energy   TEWEN  =    -29702.44958505
  -Hartree energ DENC   =    -12534.43991952
  -exchange      EXHF   =         0.00000000
  -V(xc)+E(xc)   XCENC  =      2534.59776410
  PAW double counting   =     32496.41603574   -33591.34861692
  entropy T*S    EENTRO =        -0.00000000
  eigenvalues    EBANDS =    -11540.79702570
  atomic energy  EATOM  =     50983.98519967
  Solvation  Ediel_sol  =         0.00000000
  ---------------------------------------------------
  free energy    TOTEN  =      -549.25767891 eV

  energy without entropy =     -549.25767891  energy(sigma->0) =     -549.25767891


--------------------------------------------------------------------------------------------------------




--------------------------------------- Iteration      1(   7)  ---------------------------------------


    EDDIAG:  cpu time    0.9407: real time    0.9413
  RMM-DIIS:  cpu time    5.4684: real time    5.4700
    ORTHCH:  cpu time    0.2633: real time    0.2635
       DOS:  cpu time    0.0004: real time    0.0004
    --------------------------------------------
      LOOP:  cpu time    6.6728: real time    6.6752

 eigenvalue-minimisations  :   592
 total energy-change (2. order) :-0.7227894E+02  (-0.6917898E+02)
 number of electron     960.0000000 magnetization 
 augmentation part      960.0000000 magnetization 

 Free energy of the ion-electron system (eV)
  ---------------------------------------------------
  alpha Z        PSCENC =       804.77846877
  Ewald energy   TEWEN  =    -29702.44958505
  -Hartree energ DENC   =    -12534.43991952
  -exchange      EXHF   =         0.00000000
  -V(xc)+E(xc)   XCENC  =      2534.59776410
  PAW double counting   =     32496.41603574   -33591.34861692
  entropy T*S    EENTRO =        -0.00000000
  eigenvalues    EBANDS =    -11613.07596328
  atomic energy  EATOM  =     50983.98519967
  Solvation  Ediel_sol  =         0.00000000
  ---------------------------------------------------
  free energy    TOTEN  =      -621.53661649 eV

  energy without entropy =     -621.53661649  energy(sigma->0) =     -621.53661649


--------------------------------------------------------------------------------------------------------




--------------------------------------- Iteration      1(   8)  ---------------------------------------


    EDDIAG:  cpu time    0.9450: real time    0.9455
  RMM-DIIS:  cpu time    5.4665: real time    5.4715
    ORTHCH:  cpu time    0.2640: real time    0.2640
       DOS:  cpu time    0.0003: real time    0.0003
    --------------------------------------------
      LOOP:  cpu time    6.6758: real time    6.6814

 eigenvalue-minimisations  :   592
 total energy-change (2. order) :-0.4198611E+02  (-0.3963091E+02)
 number of electron     960.0000000 magnetization 
 augmentation part      960.0000000 magnetization 

 Free energy of the ion-electron system (eV)
  ---------------------------------------------------
  alpha Z        PSCENC =       804.77846877
  Ewald energy   TEWEN  =    -29702.44958505
  -Hartree energ DENC   =    -12534.43991952
  -exchange      EXHF   =         0.00000000
  -V(xc)+E(xc)   XCENC  =      2534.59776410
  PAW double counting   =     32496.41603574   -33591.34861692
  entropy T*S    EENTRO =        -0.00000000
  eigenvalues    EBANDS =    -11655.06207749
  atomic energy  EATOM  =     50983.98519967
  Solvation  Ediel_sol  =         0.00000000
  ---------------------------------------------------
  free energy    TOTEN  =      -663.52273070 eV

  energy without entropy =     -663.52273070  energy(sigma->0) =     -663.52273070


--------------------------------------------------------------------------------------------------------




--------------------------------------- Iteration      1(   9)  ---------------------------------------


    EDDIAG:  cpu time    0.9394: real time    0.9404
  RMM-DIIS:  cpu time   19.5300: real time   19.5416
    ORTHCH:  cpu time    0.2581: real time    0.2581
       DOS:  cpu time    0.0003: real time    0.0003
    --------------------------------------------
      LOOP:  cpu time   20.7278: real time   20.7404

 eigenvalue-minimisations  :  2144
 total energy-change (2. order) :-0.1113579E+03  (-0.1105986E+03)
 number of electron     960.0000000 magnetization 
 augmentation part      960.0000000 magnetization 

 Free energy of the ion-electron system (eV)
  ---------------------------------------------------
  alpha Z        PSCENC =       804.77846877
  Ewald energy   TEWEN  =    -29702.44958505
  -Hartree energ DENC   =    -12534.43991952
  -exchange      EXHF   =         0.00000000
  -V(xc)+E(xc)   XCENC  =      2534.59776410
  PAW double counting   =     32496.41603574   -33591.34861692
  entropy T*S    EENTRO =        -0.00000000
  eigenvalues    EBANDS =    -11766.41995331
  atomic energy  EATOM  =     50983.98519967
  Solvation  Ediel_sol  =         0.00000000
  ---------------------------------------------------
  free energy    TOTEN  =      -774.88060652 eV

  energy without entropy =     -774.88060652  energy(sigma->0) =     -774.88060652


--------------------------------------------------------------------------------------------------------




--------------------------------------- Iteration      1(  10)  ---------------------------------------


    EDDIAG:  cpu time    0.9398: real time    0.9404
  RMM-DIIS:  cpu time   19.4409: real time   19.4510
    ORTHCH:  cpu time    0.2574: real time    0.2575
       DOS:  cpu time    0.0004: real time    0.0004
    --------------------------------------------
      LOOP:  cpu time   20.6385: real time   20.6494

 eigenvalue-minimisations  :  2141
 total energy-change (2. order) :-0.5768966E+02  (-0.5689922E+02)
 number of electron     960.0000000 magnetization 
 augmentation part      960.0000000 magnetization 

 Free energy of the ion-electron system (eV)
  ---------------------------------------------------
  alpha Z        PSCENC =       804.77846877
  Ewald energy   TEWEN  =    -29702.44958505
  -Hartree energ DENC   =    -12534.43991952
  -exchange      EXHF   =         0.00000000
  -V(xc)+E(xc)   XCENC  =      2534.59776410
  PAW double counting   =     32496.41603574   -33591.34861692
  entropy T*S    EENTRO =        -0.00000000
  eigenvalues    EBANDS =    -11824.10960970
  atomic energy  EATOM  =     50983.98519967
  Solvation  Ediel_sol  =         0.00000000
  ---------------------------------------------------
  free energy    TOTEN  =      -832.57026291 eV

  energy without entropy =     -832.57026291  energy(sigma->0) =     -832.57026291


--------------------------------------------------------------------------------------------------------




--------------------------------------- Iteration      1(  11)  ---------------------------------------


    EDDIAG:  cpu time    0.9449: real time    0.9461
  RMM-DIIS:  cpu time   18.8179: real time   18.8319
    ORTHCH:  cpu time    0.2583: real time    0.2584
       DOS:  cpu time    0.0003: real time    0.0003
    --------------------------------------------
      LOOP:  cpu time   20.0213: real time   20.0367

 eigenvalue-minimisations  :  2064
 total energy-change (2. order) :-0.1214036E+02  (-0.1249257E+02)
 number of electron     960.0000000 magnetization 
 augmentation part      960.0000000 magnetization 

 Free energy of the ion-electron system (eV)
  ---------------------------------------------------
  alpha Z        PSCENC =       804.77846877
  Ewald energy   TEWEN  =    -29702.44958505
  -Hartree energ DENC   =    -12534.43991952
  -exchange      EXHF   =         0.00000000
  -V(xc)+E(xc)   XCENC  =      2534.59776410
  PAW double counting   =     32496.41603574   -33591.34861692
  entropy T*S    EENTRO =        -0.00000000
  eigenvalues    EBANDS =    -11836.24997457
  atomic energy  EATOM  =     50983.98519967
  Solvation  Ediel_sol  =         0.00000000
  ---------------------------------------------------
  free energy    TOTEN  =      -844.71062778 eV

  energy without entropy =     -844.71062778  energy(sigma->0) =     -844.71062778


--------------------------------------------------------------------------------------------------------




--------------------------------------- Iteration      1(  12)  ---------------------------------------


    EDDIAG:  cpu time    0.9750: real time    0.9762
  RMM-DIIS:  cpu time   18.4867: real time   18.4985
    ORTHCH:  cpu time    0.2646: real time    0.2645
       DOS:  cpu time    0.0004: real time    0.0004
    CHARGE:  cpu time    0.2009: real time    0.2010
    MIXING:  cpu time    0.0023: real time    0.0026
    --------------------------------------------
      LOOP:  cpu time   19.9299: real time   19.9433

 eigenvalue-minimisations  :  2036
 total energy-change (2. order) :-0.7365775E+01  (-0.7367044E+01)
 number of electron     960.0000133 magnetization 
 augmentation part        6.5077473 magnetization 

 Broyden mixing:
  rms(total) = 0.70677E+01    rms(broyden)= 0.70650E+01
  rms(prec ) = 0.73994E+01
  weight for this iteration     100.00

 Free energy of the ion-electron system (eV)
  ---------------------------------------------------
  alpha Z        PSCENC =       804.77846877
  Ewald energy   TEWEN  =    -29702.44958505
  -Hartree energ DENC   =    -12534.43991952
  -exchange      EXHF   =         0.00000000
  -V(xc)+E(xc)   XCENC  =      2534.59776410
  PAW double counting   =     32496.41603574   -33591.34861692
  entropy T*S    EENTRO =        -0.00000000
  eigenvalues    EBANDS =    -11843.61574963
  atomic energy  EATOM  =     50983.98519967
  Solvation  Ediel_sol  =         0.00000000
  ---------------------------------------------------
  free energy    TOTEN  =      -852.07640283 eV

  energy without entropy =     -852.07640283  energy(sigma->0) =     -852.07640283


--------------------------------------------------------------------------------------------------------




--------------------------------------- Iteration      1(  13)  ---------------------------------------


    POTLOK:  cpu time    0.0814: real time    0.0818
    SETDIJ:  cpu time    0.0069: real time    0.0069
    EDDIAG:  cpu time    0.9734: real time    0.9736
  RMM-DIIS:  cpu time   14.2985: real time   14.3042
    ORTHCH:  cpu time    0.2597: real time    0.2597
       DOS:  cpu time    0.0006: real time    0.0006
    CHARGE:  cpu time    0.1978: real time    0.1979
    MIXING:  cpu time    0.0021: real time    0.0022
    --------------------------------------------
      LOOP:  cpu time   15.8204: real time   15.8270

 eigenvalue-minimisations  :  1585
 total energy-change (2. order) : 0.3909668E+02  (-0.9566003E+01)
 number of electron     960.0000134 magnetization 
 augmentation part        7.1392767 magnetization 

 Broyden mixing:
  rms(total) = 0.46893E+01    rms(broyden)= 0.46893E+01
  rms(prec ) = 0.48044E+01
  weight for this iteration     100.00

 eigenvalues of (default mixing * dielectric matrix)
  average eigenvalue GAMMA=   2.1925
  2.1925

 Free energy of the ion-electron system (eV)
  ---------------------------------------------------
  alpha Z        PSCENC =       804.77846877
  Ewald energy   TEWEN  =    -29702.44958505
  -Hartree energ DENC   =    -12838.81210702
  -exchange      EXHF   =         0.00000000
  -V(xc)+E(xc)   XCENC  =      2557.10279357
  PAW double counting   =     45386.34882661   -46503.08643966
  entropy T*S    EENTRO =        -0.00378937
  eigenvalues    EBANDS =    -11500.84308544
  atomic energy  EATOM  =     50983.98519967
  Solvation  Ediel_sol  =         0.00000000
  ---------------------------------------------------
  free energy    TOTEN  =      -812.97971793 eV

  energy without entropy =     -812.97592856  energy(sigma->0) =     -812.97782325


--------------------------------------------------------------------------------------------------------




--------------------------------------- Iteration      1(  14)  ---------------------------------------


    POTLOK:  cpu time    0.0811: real time    0.0813
    SETDIJ:  cpu time    0.0069: real time    0.0069
    EDDIAG:  cpu time    0.9687: real time    0.9691
  RMM-DIIS:  cpu time   15.0843: real time   15.1321
    ORTHCH:  cpu time    0.2638: real time    0.2638
       DOS:  cpu time    0.0006: real time    0.0006
    CHARGE:  cpu time    0.1943: real time    0.1945
    MIXING:  cpu time    0.0022: real time    0.0022
    --------------------------------------------
      LOOP:  cpu time   16.6018: real time   16.6504

 eigenvalue-minimisations  :  1667
 total energy-change (2. order) : 0.3815178E+01  (-0.7743419E+01)
 number of electron     960.0000135 magnetization 
 augmentation part        6.6087870 magnetization 

 Broyden mixing:
  rms(total) = 0.15264E+01    rms(broyden)= 0.15262E+01
  rms(prec ) = 0.16235E+01
  weight for this iteration     100.00

 eigenvalues of (default mixing * dielectric matrix)
  average eigenvalue GAMMA=   1.8805
  1.3541  2.4069

 Free energy of the ion-electron system (eV)
  ---------------------------------------------------
  alpha Z        PSCENC =       804.77846877
  Ewald energy   TEWEN  =    -29702.44958505
  -Hartree energ DENC   =    -13130.67106182
  -exchange      EXHF   =         0.00000000
  -V(xc)+E(xc)   XCENC  =      2579.27987105
  PAW double counting   =     70596.93942582   -71738.07422195
  entropy T*S    EENTRO =        -0.00382067
  eigenvalues    EBANDS =    -11202.94881554
  atomic energy  EATOM  =     50983.98519967
  Solvation  Ediel_sol  =         0.00000000
  ---------------------------------------------------
  free energy    TOTEN  =      -809.16453972 eV

  energy without entropy =     -809.16071905  energy(sigma->0) =     -809.16262938


--------------------------------------------------------------------------------------------------------




--------------------------------------- Iteration      1(  15)  ---------------------------------------


    POTLOK:  cpu time    0.0809: real time    0.0811
    SETDIJ:  cpu time    0.0069: real time    0.0068
    EDDIAG:  cpu time    0.9681: real time    0.9686
  RMM-DIIS:  cpu time   17.1215: real time   17.1300
    ORTHCH:  cpu time    0.2579: real time    0.2579
       DOS:  cpu time    0.0006: real time    0.0005
    CHARGE:  cpu time    0.1971: real time    0.1971
    MIXING:  cpu time    0.0022: real time    0.0022
    --------------------------------------------
      LOOP:  cpu time   18.6352: real time   18.6445

 eigenvalue-minimisations  :  1864
 total energy-change (2. order) :-0.1122463E+01  (-0.2144957E+01)
 number of electron     960.0000134 magnetization 
 augmentation part        5.3467268 magnetization 

 Broyden mixing:
  rms(total) = 0.56087E+00    rms(broyden)= 0.56037E+00
  rms(prec ) = 0.66588E+00
  weight for this iteration     100.00

 eigenvalues of (default mixing * dielectric matrix)
  average eigenvalue GAMMA=   1.4797
  2.3999  1.3707  0.6686

 Free energy of the ion-electron system (eV)
  ---------------------------------------------------
  alpha Z        PSCENC =       804.77846877
  Ewald energy   TEWEN  =    -29702.44958505
  -Hartree energ DENC   =    -13127.68253689
  -exchange      EXHF   =         0.00000000
  -V(xc)+E(xc)   XCENC  =      2579.49381518
[...]
      9.71813      1.83487      4.01475        -1.390687     -0.117844      3.314941
     12.57450      0.10731     14.03190         0.072821      1.772727     -1.123102
     14.79810     13.69900      2.10227        -1.732725      0.407976     -2.006102
      5.53500      8.66933      0.87793         0.096532      0.526638     -0.913507
     13.46260      4.06604      2.90251         1.604348      1.057038      2.091170
     10.70810      7.75210     16.10160         3.417067     -1.044372      2.341691
      4.32204     10.66880      4.29007         0.606196     -0.169607     -0.090751
      8.25185      6.36675     13.82670        -1.754659      6.482900      2.782967
     11.07900      0.85796      9.27885         0.207556      0.185413      0.523306
     10.46560     14.15940      7.46279         0.632232      0.230382      1.690572
      9.64951     13.95270     10.75680        -1.134263      1.963856     -1.282613
     12.72620     13.94490     10.25490         0.716325      0.475709     -0.196545
     10.86700     10.86710     11.72800         1.584075      0.493980      2.433035
     11.57490     11.79530      4.81763         0.419848      0.419030     -0.421287
      7.97623     15.49020     10.34260         1.291060     -0.489406      0.318202
      8.00619     10.99520      6.87371         0.057920      0.308024      0.619475
      6.87516      6.46240      2.96316        -0.947831     -0.808620     -0.360676
      5.54167      4.49461      5.74352         0.457599      0.259699      0.203395
      1.80080      2.23561      4.20761         1.351779     -1.296808      0.158048
      3.77441      5.40660      3.07875         0.010614      0.188134     -0.208598
      3.96420     15.63120      6.61379         0.654149      0.056213     -1.173647
      4.48181      0.95690      9.54155        -0.761693     -1.786460     -0.401048
      4.44887     13.46630      9.25025        -1.203640      1.276698     -0.933425
      1.36548     15.25960      8.63631         1.851313      0.674863      0.384946
     14.45400      7.30856      6.99232        -1.094408     -0.899237      1.169060
     10.61380      8.53852      5.15603        -0.127947     -0.594873      0.532317
      1.07329      9.51882      6.48089        -1.006662     -0.318216      0.118662
     10.90020      5.04233      7.09949         1.643733      1.434073      0.479606
     13.82810      6.55660     13.95310        -0.219597      1.116644     -0.732048
      0.38509      7.02687     12.49220         1.433487      0.284493     -0.484302
     13.88450      8.91630     11.64950        -0.930075      3.989589     -0.749615
     10.74540      8.01863      8.95333         1.143943     -0.737993      1.046680
      9.34840      9.43396      9.63862        -2.216520     -3.218047     -1.597420
      7.75291      6.92775      8.51996        -1.314931      1.885448     -1.041083
      6.65603      3.95163      9.51004         0.396508     -0.158282      0.110781
      9.24689      4.25040      7.77227        -1.423502     -1.424857      0.346547
      0.51637     11.23620      9.30876         0.134511      0.861224      0.914905
      5.57221     10.47450      9.67350        -0.612189     -0.655817     -0.325254
      0.99544      8.01107      9.60920        -0.744937     -0.545729     -0.026076
      2.74199     11.54290     12.64610         0.496721     -0.468644      1.454988
      7.46923      1.25028      6.48701        -0.858993     -0.691997     -0.422016
     11.01870      1.57392      2.59535         2.256893     -0.130602     -3.077189
     10.87110      1.34024      5.83724        -0.001841      0.023134     -0.549982
      9.39898      3.82234      4.23378         0.047464      1.208122     -0.972377
     12.12000      1.60003     15.30560         0.509051     -0.101999      0.806021
     10.82340     16.09100     12.98330        -0.912290     -0.092319     -0.703483
     12.87400     14.38270     14.69790        -0.195301     -1.582272     -0.096101
     14.07980      0.52098     12.69830         0.115861     -0.537010     -0.025087
     13.18850     15.14740      2.53695         0.867027      0.097002      0.841449
     14.66290      9.25344      4.15374         0.480328      0.167627     -0.503344
     15.70390     14.46990      0.38537         0.058703      0.796182     -0.021587
     13.41330     12.26220      1.03099         0.639293     -0.045850      0.957592
      5.91209      9.33746      4.62157        -0.975046      0.358888     -0.423007
      7.29341      9.21087     16.20890        -0.547880     -0.220415      0.445026
      3.93363      9.70953     16.17140         0.267310     -0.003202      0.533015
      5.26636      6.64102      0.19334         0.638595      0.680407     -0.749323
     13.68570      3.10982      4.73034         0.082948     -0.387499     -0.790541
     11.81840      3.46095      1.83079        -0.693906     -0.350530     -0.446794
     15.26260      4.17146      1.92557        -0.961514      0.403418     -0.092637
     13.07160      6.05185      3.73176        -0.432281     -0.772332     -0.628702
     10.30710      8.14332      1.65744         0.122583      0.350371      0.046440
      9.49482      6.26006     15.67830        -0.875769     -1.677607     -0.542147
     12.60380      6.58198      0.09581        -1.171395     -1.249081     -1.753781
     11.41530      9.21839     15.06830        -0.654620      1.583871     -1.273800
      2.70160      9.47816      3.62234         0.300875      0.102074     -0.364424
      4.73532     12.26520      2.98044        -0.449248     -0.562985      0.618371
      7.19472     12.75580      6.01036         0.031704      0.624198      0.605859
      3.79133     11.38940      6.12638        -0.535444      0.631525     -0.112819
      8.02937      4.70307     13.13150        -1.103630     -6.515666     -2.736162
     11.29900      6.83279     10.68260        -0.852743     -0.056380     -1.984869
      8.15403      1.44596     14.15790        -0.776209     -0.636143     -0.811393
      8.95450      7.61249     12.47500         0.360046      1.156768     -0.642988
      8.68806     11.29950      2.78333        -0.078635     -0.447683     -0.659272
      3.71077     14.29220      0.03375         1.107039      0.437360     -0.810820
      6.99702     11.74030     10.37370         0.998916      0.873905     -0.160720
     15.62030      9.86077     15.04940         0.690274      0.656931      0.074612
      3.63571      7.53830     13.21450        -0.282475      0.048075      1.095527
      6.09283      2.90442     16.42280        -0.331827      0.501453      0.949073
     11.55760      3.89326     12.37170        -0.595400     -0.722207      0.635000
      4.13777      2.71060     12.68810        -0.057200      0.095723      0.326630
      0.93162      5.72159      5.53515        -0.045032     -0.325476      0.004629
     15.56580      8.34623      2.00641        -0.297204      0.186210      0.982497
      5.45923     14.61020     12.83730         0.241858     -0.472190      0.237179
     14.57760     13.11310      6.60131         1.709532      0.213775      0.596977
      0.10668      3.40972     12.95610         0.338015     -1.014658     -1.060213
      8.41458      6.98809      4.14714         0.230342      0.803381      0.756139
      9.40071     14.71510      3.89878         0.547761      0.842723      0.681956
      7.52987      2.15771     10.29490        -0.157677      0.453267     -0.566554
      8.57035     15.09110      0.22516        -0.537567      0.064886     -0.036610
      5.99394      0.42687      2.60629        -0.265839      0.078795      0.734137
      3.78018      7.34298      7.07114         1.298326      0.519438     -0.578533
      8.66714     12.37190     14.55910         0.055733     -0.976513      0.196379
      6.22297     10.21070     13.03780         0.395398     -0.414393      1.082519
      2.50060      2.58469     16.28500        -0.464854      0.048901      0.274772
     13.88200      3.38825      9.16156         0.249329     -0.097138      0.127182
      1.46094      4.02837      9.46898        -0.221606     -0.161877     -0.083390
      1.31973     11.70010      1.04229         0.396080     -0.314883      0.083732
      1.20635     13.63970      4.53813         0.840598      0.270629      0.092311
      1.66912     15.34090     12.73860         0.298229     -0.031979      0.092005
     15.29860     12.83860     12.73870         0.277643     -0.475350      0.222419
      1.12176      6.87986     15.81420        -0.032848     -0.537345      0.796840
     12.48780     10.71590      8.18276        -0.192560     -0.668898      0.430146
     14.38030      0.27645      6.44942        -0.469403      0.895069      0.297805
      4.26323      6.25337     10.35160         0.507343     -0.352204     -0.045287
 -----------------------------------------------------------------------------------
    total drift:                                0.031561     -0.004362      0.020415


--------------------------------------------------------------------------------------------------------



  FREE ENERGIE OF THE ION-ELECTRON SYSTEM (eV)
  ---------------------------------------------------
  free  energy   TOTEN  =      -810.45732543 eV

  energy  without entropy=     -810.45617989  energy(sigma->0) =     -810.45675266
 


--------------------------------------------------------------------------------------------------------


    POTLOK:  cpu time    0.0984: real time    0.0984


--------------------------------------------------------------------------------------------------------




--------------------------------------------------------------------------------------------------------


     LOOP+:  cpu time  968.9776: real time  969.7856
    4ORBIT:  cpu time    0.0000: real time    0.0000
 


 total charge     
 
# of ion       s       p       d       tot
------------------------------------------
    1        2.016   0.046   0.000   2.062
    2        2.006   0.033   0.000   2.039
    3        2.015   0.047   0.000   2.062
    4        2.029   0.067   0.000   2.096
    5        2.024   0.065   0.000   2.089
    6        2.016   0.045   0.000   2.061
    7        2.011   0.036   0.000   2.048
    8        2.013   0.043   0.000   2.056
    9        2.008   0.033   0.000   2.041
   10        2.018   0.050   0.000   2.068
   11        2.019   0.048   0.000   2.067
   12        2.022   0.059   0.000   2.081
   13        2.010   0.036   0.000   2.045
   14        2.009   0.040   0.000   2.049
   15        2.018   0.054   0.000   2.072
   16        2.013   0.043   0.000   2.056
   17        2.016   0.050   0.000   2.066
   18        2.024   0.060   0.000   2.084
   19        2.006   0.033   0.000   2.039
   20        2.018   0.052   0.000   2.070
   21        2.023   0.058   0.000   2.081
   22        2.017   0.046   0.000   2.062
   23        2.001   0.025   0.000   2.026
   24        2.029   0.065   0.000   2.094
   25        2.023   0.055   0.000   2.078
   26        2.026   0.066   0.000   2.092
   27        2.024   0.062   0.000   2.086
   28        2.009   0.037   0.000   2.046
   29        2.023   0.057   0.000   2.080
   30        2.007   0.035   0.000   2.042
   31        2.026   0.064   0.000   2.089
   32        2.031   0.066   0.000   2.097
   33        2.018   0.049   0.000   2.067
   34        2.018   0.048   0.000   2.066
   35        2.010   0.039   0.000   2.048
   36        2.017   0.046   0.000   2.063
   37        2.015   0.044   0.000   2.059
   38        2.025   0.060   0.000   2.084
   39        2.022   0.061   0.000   2.083
   40        2.057   0.137   0.000   2.194
   41        2.025   0.061   0.000   2.085
   42        2.021   0.056   0.000   2.077
   43        2.025   0.061   0.000   2.086
   44        2.012   0.040   0.000   2.052
   45        2.011   0.038   0.000   2.049
   46        2.003   0.026   0.000   2.030
   47        2.010   0.038   0.000   2.048
   48        2.013   0.042   0.000   2.054
   49        2.011   0.039   0.000   2.050
   50        2.030   0.068   0.000   2.097
   51        2.014   0.046   0.000   2.060
   52        2.014   0.044   0.000   2.058
   53        2.021   0.055   0.000   2.076
   54        2.016   0.047   0.000   2.063
   55        2.027   0.065   0.000   2.092
   56        2.012   0.042   0.000   2.054
   57        2.035   0.082   0.000   2.116
   58        2.013   0.043   0.000   2.056
   59        2.021   0.056   0.000   2.077
   60        2.023   0.058   0.000   2.081
   61        2.018   0.052   0.000   2.070
   62        2.024   0.056   0.000   2.080
   63        2.028   0.070   0.000   2.098
   64        2.024   0.060   0.000   2.084
   65        2.018   0.048   0.000   2.065
   66        2.020   0.055   0.000   2.075
   67        2.017   0.048   0.000   2.065
   68        2.013   0.042   0.000   2.055
   69        2.011   0.040   0.000   2.050
   70        2.026   0.061   0.000   2.087
   71        2.038   0.087   0.000   2.125
   72        2.021   0.054   0.000   2.075
   73        2.025   0.061   0.000   2.086
   74        2.027   0.063   0.000   2.090
   75        2.016   0.044   0.000   2.060
   76        2.016   0.042   0.000   2.058
   77        2.030   0.068   0.000   2.098
   78        2.026   0.066   0.000   2.091
   79        2.015   0.047   0.000   2.062
   80        2.019   0.054   0.000   2.073
   81        2.027   0.066   0.000   2.093
   82        2.019   0.055   0.000   2.074
   83        2.030   0.071   0.000   2.101
   84        2.017   0.049   0.000   2.066
   85        2.012   0.043   0.000   2.055
   86        2.021   0.054   0.000   2.076
   87        2.018   0.052   0.000   2.070
   88        2.019   0.055   0.000   2.074
   89        2.024   0.063   0.000   2.087
   90        2.022   0.056   0.000   2.078
   91        2.027   0.063   0.000   2.090
   92        2.006   0.032   0.000   2.038
   93        2.026   0.063   0.000   2.089
   94        2.018   0.046   0.000   2.063
   95        2.019   0.053   0.000   2.072
   96        2.019   0.052   0.000   2.071
   97        0.992   1.332   0.000   2.324
   98        1.111   1.383   0.000   2.495
   99        1.050   1.380   0.000   2.430
  100        0.994   1.297   0.000   2.291
  101        1.068   1.339   0.000   2.407
  102        1.052   1.430   0.000   2.482
  103        1.114   1.424   0.000   2.537
  104        1.081   1.338   0.000   2.419
  105        1.065   1.405   0.000   2.469
  106        0.969   1.412   0.000   2.381
  107        1.082   1.298   0.000   2.381
  108        1.092   1.256   0.000   2.347
  109        0.982   1.355   0.000   2.337
  110        0.978   1.408   0.000   2.386
  111        0.976   1.344   0.000   2.320
  112        1.057   1.473   0.000   2.530
  113        1.340   2.451   0.000   3.791
  114        1.341   2.373   0.000   3.713
  115        1.379   2.239   0.000   3.618
  116        1.359   2.376   0.000   3.734
  117        1.347   2.453   0.000   3.799
  118        1.313   2.462   0.000   3.776
  119        1.354   2.303   0.000   3.658
  120        1.342   2.362   0.000   3.705
  121        1.363   2.329   0.000   3.692
  122        1.343   2.417   0.000   3.760
  123        1.313   2.433   0.000   3.745
  124        1.342   2.424   0.000   3.767
  125        1.326   2.497   0.000   3.823
  126        1.357   2.339   0.000   3.696
  127        1.359   2.345   0.000   3.704
  128        1.342   2.370   0.000   3.712
  129        1.339   2.453   0.000   3.792
  130        1.319   2.444   0.000   3.763
  131        1.359   2.344   0.000   3.703
  132        1.329   2.461   0.000   3.791
  133        1.349   2.434   0.000   3.783
  134        1.337   2.477   0.000   3.814
  135        1.334   2.515   0.000   3.849
  136        1.377   2.238   0.000   3.614
  137        1.370   2.385   0.000   3.755
  138        1.336   2.490   0.000   3.826
  139        1.373   2.270   0.000   3.643
  140        1.349   2.356   0.000   3.705
  141        1.331   2.449   0.000   3.780
  142        1.339   2.340   0.000   3.680
  143        1.353   2.426   0.000   3.780
  144        1.307   2.509   0.000   3.816
  145        1.311   2.464   0.000   3.775
  146        1.376   2.341   0.000   3.717
  147        1.336   2.418   0.000   3.753
  148        1.340   2.459   0.000   3.800
  149        1.348   2.396   0.000   3.744
  150        1.337   2.504   0.000   3.841
  151        1.343   2.484   0.000   3.828
  152        1.341   2.432   0.000   3.773
  153        1.338   2.424   0.000   3.762
  154        1.373   2.258   0.000   3.631
  155        1.330   2.453   0.000   3.783
  156        1.343   2.368   0.000   3.711
  157        1.345   2.401   0.000   3.745
  158        1.339   2.406   0.000   3.745
  159        1.333   2.402   0.000   3.734
  160        1.327   2.491   0.000   3.818
  161        1.348   2.406   0.000   3.753
  162        1.377   2.286   0.000   3.662
  163        1.342   2.403   0.000   3.744
  164        1.339   2.413   0.000   3.753
  165        1.343   2.429   0.000   3.771
  166        1.354   2.415   0.000   3.769
  167        1.348   2.419   0.000   3.768
  168        1.345   2.430   0.000   3.774
  169        1.334   2.458   0.000   3.793
  170        1.347   2.380   0.000   3.727
  171        1.332   2.387   0.000   3.719
  172        1.345   2.421   0.000   3.766
  173        1.341   2.569   0.000   3.910
  174        1.359   2.344   0.000   3.702
  175        1.316   2.503   0.000   3.819
  176        1.354   2.411   0.000   3.765
  177        1.312   2.443   0.000   3.755
  178        1.308   2.459   0.000   3.767
  179        1.344   2.333   0.000   3.677
  180        1.309   2.508   0.000   3.818
  181        1.312   2.500   0.000   3.812
  182        1.315   2.455   0.000   3.771
  183        1.314   2.441   0.000   3.755
  184        1.312   2.450   0.000   3.762
  185        1.309   2.479   0.000   3.788
  186        1.352   2.302   0.000   3.653
  187        1.308   2.475   0.000   3.783
  188        1.323   2.428   0.000   3.751
  189        1.309   2.504   0.000   3.812
  190        1.362   2.354   0.000   3.717
  191        1.314   2.489   0.000   3.803
  192        1.358   2.316   0.000   3.675
  193        1.590   3.581   0.000   5.171
  194        1.591   3.572   0.000   5.164
  195        1.592   3.590   0.000   5.181
  196        1.591   3.580   0.000   5.171
  197        1.595   3.601   0.000   5.196
  198        1.589   3.571   0.000   5.160
  199        1.589   3.553   0.000   5.142
  200        1.590   3.570   0.000   5.160
  201        1.593   3.589   0.000   5.182
  202        1.594   3.542   0.000   5.136
  203        1.589   3.564   0.000   5.153
  204        1.593   3.550   0.000   5.143
  205        1.593   3.579   0.000   5.172
  206        1.597   3.582   0.000   5.179
  207        1.595   3.554   0.000   5.149
  208        1.594   3.560   0.000   5.154
--------------------------------------------------
tot        343.148 277.136   0.000 620.283
 

 total amount of memory used by VASP MPI-rank0   111673. kBytes
=======================================================================

   base      :      30000. kBytes
   nonl-proj :      48226. kBytes
   fftplans  :       6264. kBytes
   grid      :      10964. kBytes
   one-center:         79. kBytes
   wavefun   :      16140. kBytes
 
  
  
 General timing and accounting informations for this job:
 ========================================================
  
                  Total CPU time used (sec):      978.287
                            User time (sec):      974.618
                          System time (sec):        3.668
                         Elapsed time (sec):      979.569
  
                   Maximum memory used (kb):      326148.
                   Average memory used (kb):           0.
  
                          Minor page faults:       479911
                          Major page faults:            0
                 Voluntary context switches:        11949
