LPSC                                    
           1
    16.026082    0.000000    0.000000
     0.000000   16.100000    0.000000
     0.000000    0.000000   16.425367
   Li   P    S    Cl
  96  16  80  16
Direct configuration=     1
   0.71534640  0.85195652  0.17898839
   0.57269643  0.66342236  0.02039151
   0.68842154  0.62219876  0.19946160
   0.82089309  0.92354037  0.02219476
   0.57501515  0.77925466  0.28540793
   0.91535785  0.75142857  0.94174456
   0.21962823  0.04500863  0.02855364
   0.21765582  0.87898137  0.29665517
   0.11463376  0.00331590  0.33973366
   0.23203800  0.74663354  0.04517494
   0.08959457  0.69453416  0.88714000
   0.31557869  0.84357143  0.42574756
   0.38169279  0.47899317  0.61219941
   0.53701398  0.80867702  0.51839572
   0.70703494  0.87105590  0.75972732
   0.34688017  0.63370807  0.43234042
   0.71291910  0.51299627  0.75297557
   0.16411060  0.72346584  0.64092327
   0.98342190  0.90565217  0.86921041
   0.92049947  0.47633043  0.96001508
   0.16986435  0.48172422  0.68015527
   0.48130479  0.88176398  0.85825175
   0.01301653  0.63366460  0.73568524
   0.86698046  0.58578261  0.84653207
   0.34442479  0.46295466  0.87441577
   0.07629625  0.51558137  0.85940850
   0.25714083  0.60671615  0.83406356
   0.40959044  0.70418012  0.92994574
   0.05757864  0.31258944  0.69811530
   0.54301544  0.65621118  0.76207125
   0.28801675  0.29360373  0.05418296
   0.36624360  0.18684845  0.14146655
   0.44723533  0.06112478  0.04923385
   0.43929390  0.30425776  0.02353634
   0.64328262  0.37310870  0.19079391
   0.06485366  0.16557453  0.12668575
   0.81198886  0.09683602  0.49260574
   0.79036785  0.31610932  0.66623778
   0.60512669  0.01662329  0.92209812
   0.57175360  0.29543043  0.66638998
   0.87221568  0.16674720  0.79765645
   0.77214755  0.31303230  0.87415398
   0.48801448  0.23021615  0.35088653
   0.23168420  0.99389441  0.71234329
   0.33649959  0.07543043  0.33206442
   0.97438039  0.14177267  0.65258816
   0.40145371  0.98772671  0.50547668
   0.96405347  0.32294161  0.43891196
   0.37894165  0.41815031  0.40881948
   0.01947226  0.22587640  0.28901516
   0.19465456  0.26851304  0.30789327
   0.96541999  0.38266273  0.21423692
   0.12531510  0.47393106  0.31296835
   0.26255575  0.48462919  0.18547653
   0.78261175  0.60393602  0.32615405
   0.10971241  0.57640807  0.08497284
   0.80289119  0.46028944  0.11482240
   0.09767765  0.69649068  0.28174226
   0.95760773  0.65507453  0.05365427
   0.11635969  0.42371429  0.46538930
   0.42390024  0.03672037  0.74684480
   0.33744679  0.94271429  0.91022624
   0.37892980  0.88024845  0.64567811
   0.09173484  0.81745963  0.72495793
   0.23180962  0.83993789  0.86267783
   0.32272642  0.73690683  0.74451913
   0.05928255  0.82993168  0.46223381
   0.90991672  0.94145342  0.50149869
   0.90478758  0.77416770  0.23787718
   0.90397017  0.72613665  0.51665695
   0.78935700  0.76752795  0.41095094
   0.72002003  0.10500373  0.69566178
   0.98506921  0.31544783  0.86289092
   0.39431035  0.16212112  0.85657751
   0.12530262  0.15477888  0.84708610
   0.25554718  0.32746460  0.78488353
   0.11069331  0.86942236  0.05838335
   0.20926450  0.45171615  0.95437746
   0.56336976  0.41440745  0.38739591
   0.51080545  0.56261304  0.13029298
   0.71947092  0.23939814  0.32882675
   0.51491562  0.59775342  0.30566684
   0.42440379  0.72818012  0.24482254
   0.75286024  0.42049752  0.35480790
   0.80361501  0.04955224  0.26443793
   0.50530130  0.88421118  0.13855398
   0.65291067  0.65385093  0.39867785
   0.70047689  0.93711180  0.33512980
   0.48264760  0.02809870  0.25041450
   0.54151414  0.95309317  0.37197586
   0.36428430  0.22735404  0.71740863
   0.83044627  0.53377516  0.55760641
   0.55281072  0.08215901  0.72845252
   0.19037779  0.18090373  0.64438134
   0.58416836  0.09595590  0.47035053
   0.59976169  0.20116335  0.84763403
   0.70160629  0.92933540  0.57603218
   0.63230676  0.69324224  0.60633592
   0.35341202  0.29505093  0.22540684
   0.22149019  0.95421739  0.52335695
   0.93260474  0.56193602  0.38144110
   0.90056946  0.44124596  0.72788024
   0.52350163  0.33292795  0.57704647
   0.10213351  0.59811863  0.52574107
   0.60639463  0.11396708  0.24442376
   0.78462721  0.00666522  0.85428228
   0.92337603  0.85086957  0.12798923
   0.34537450  0.53846770  0.05344964
   0.84004312  0.25254907  0.17670899
   0.66816705  0.48149689  0.98028860
   0.26968788  0.66265839  0.26118564
   0.51490127  0.39545031  0.84178941
   0.69131058  0.05328963  0.56490975
   0.65303547  0.87946584  0.45434540
   0.60211286  0.86662733  0.65488948
   0.79409303  0.86614286  0.62433308
   0.67808214  0.67497516  0.71401753
   0.72225389  0.73262733  0.29330425
   0.49770306  0.96212422  0.62967238
   0.49957251  0.68293168  0.41848136
   0.42899818  0.40139130  0.18040145
   0.34579069  0.27916832  0.34967377
   0.11236683  0.13885776  0.25616536
   0.23551670  0.33581366  0.18743873
   0.24735927  0.97088199  0.40265706
   0.27965725  0.05943484  0.58090331
   0.27760185  0.83641615  0.56316854
   0.08520361  0.94780124  0.52579099
   0.90190478  0.45394783  0.42570251
   0.66228290  0.53034286  0.31390653
   0.06697145  0.59123106  0.39456592
   0.68015376  0.31318820  0.43222718
   0.86284970  0.40724224  0.84948482
   0.02402914  0.43645155  0.76054313
   0.86636896  0.55380745  0.70923834
   0.67049451  0.49805155  0.54509163
   0.58332411  0.58596025  0.58681307
   0.48376827  0.43029503  0.51870744
   0.41532484  0.24544286  0.57898493
   0.57699006  0.26400000  0.47318699
   0.03222054  0.69790062  0.56673072
   0.34769634  0.65059006  0.58893661
   0.06211393  0.49758199  0.58502194
   0.17109547  0.71695031  0.76991278
   0.46606713  0.07765714  0.39493851
   0.68754796  0.09775901  0.15800865
   0.67833797  0.08324472  0.35537958
   0.58648021  0.23741242  0.25775862
   0.75626719  0.09938075  0.93182697
   0.67536158  0.99944099  0.79044200
   0.80331550  0.89333540  0.89482932
   0.87855534  0.03235919  0.77309079
   0.82293976  0.94083230  0.15445317
   0.91493978  0.57474783  0.25288567
   0.97989640  0.89875155  0.02346170
   0.83696689  0.76162733  0.06276816
   0.36890426  0.57996646  0.28136784
   0.45509626  0.57210373  0.98682118
   0.24545176  0.60307640  0.98453812
   0.32861182  0.41248571  0.01177057
   0.85396418  0.19315652  0.28798991
   0.73744787  0.21496584  0.11146113
   0.95236003  0.25909689  0.11723147
   0.81564540  0.37589130  0.22719492
   0.64314534  0.50579627  0.10090733
   0.59246047  0.38882360  0.95451749
   0.78645548  0.40881863  0.00583297
   0.71229512  0.57257081  0.91737981
   0.16857520  0.58870559  0.22053328
   0.29547584  0.76181366  0.18145348
   0.44893817  0.79228571  0.36591937
   0.23657248  0.70741615  0.37298284
   0.50101890  0.29211615  0.79946463
   0.70503820  0.42439689  0.65037207
   0.50879747  0.08981118  0.86195334
   0.55874543  0.47282547  0.75949597
   0.54212003  0.70183230  0.16945314
   0.23154568  0.88771429  0.00205460
   0.43660203  0.72921118  0.63156580
   0.97467990  0.61247019  0.91622915
   0.22686206  0.46821739  0.80451779
   0.38018213  0.18039876  0.99984372
   0.72117440  0.24181739  0.75320691
   0.25818974  0.16836025  0.77246980
   0.05813174  0.35537826  0.33698790
   0.97127919  0.51839938  0.12215313
   0.34064658  0.90746584  0.78155331
   0.90961721  0.81447826  0.40189726
   0.00665652  0.21178385  0.78878603
   0.52505534  0.43404286  0.25248386
   0.58658816  0.91398137  0.23736334
   0.46985096  0.13401925  0.62676834
   0.53477512  0.93733540  0.01370788
   0.37401156  0.02651348  0.15867469
   0.23587674  0.45608571  0.43050119
   0.54081465  0.76844099  0.88637898
   0.38830264  0.63420497  0.79376004
   0.15603315  0.16053975  0.99145425
   0.86621296  0.21045031  0.55776897
   0.09116015  0.25020932  0.57648514
   0.08234889  0.72671429  0.06345612
   0.07527417  0.84718634  0.27628789
   0.10415022  0.95285093  0.77554432
   0.95460637  0.79742857  0.77555040
   0.06999590  0.42732050  0.96279127
   0.77921728  0.66558385  0.49817821
   0.89730603  0.01717081  0.39264998
   0.26601823  0.38840807  0.63022032
