       N       E                     dE             d eps       ncg     rms          rms(c)
RMM:   1    -0.377721429798E+04   -0.37772E+04   -0.47012E+05   592   0.130E+03
RMM:   2     0.241873539561E+04    0.61959E+04   -0.73621E+04   592   0.251E+02
RMM:   3     0.814858346549E+03   -0.16039E+04   -0.23486E+04   592   0.135E+02
RMM:   4    -0.143205706875E+02   -0.82918E+03   -0.83598E+03   592   0.977E+01
RMM:   5    -0.378194042275E+03   -0.36387E+03   -0.33239E+03   592   0.635E+01
RMM:   6    -0.532420350687E+03   -0.15423E+03   -0.14066E+03   592   0.467E+01
RMM:   7    -0.605873477279E+03   -0.73453E+02   -0.70240E+02   592   0.359E+01
RMM:   8    -0.648625487201E+03   -0.42752E+02   -0.40293E+02   592   0.306E+01
RMM:   9    -0.760060787158E+03   -0.11144E+03   -0.11063E+03  2144   0.267E+01
RMM:  10    -0.816076993911E+03   -0.56016E+02   -0.55285E+02  2134   0.172E+01
RMM:  11    -0.829077674463E+03   -0.13001E+02   -0.13277E+02  2069   0.105E+01
RMM:  12    -0.836153849388E+03   -0.70762E+01   -0.70847E+01  2044   0.769E+00    0.778E+01
RMM:  13    -0.796398949871E+03    0.39755E+02   -0.97809E+01  1589   0.835E+00    0.508E+01
RMM:  14    -0.793866188519E+03    0.25328E+01   -0.81144E+01  1666   0.737E+00    0.162E+01
RMM:  15    -0.794210995879E+03   -0.34481E+00   -0.22753E+01  1886   0.442E+00    0.682E+00
RMM:  16    -0.793341888023E+03    0.86911E+00   -0.65398E+00  1987   0.291E+00    0.425E+00
RMM:  17    -0.793360339650E+03   -0.18452E-01   -0.44321E+00  1956   0.225E+00    0.247E+00
RMM:  18    -0.793617543404E+03   -0.25720E+00   -0.23837E+00  1965   0.173E+00    0.235E+00
RMM:  19    -0.793720551371E+03   -0.10301E+00   -0.14341E+00  1950   0.141E+00    0.116E+00
RMM:  20    -0.793809372496E+03   -0.88821E-01   -0.11535E+00  2005   0.118E+00    0.608E-01
RMM:  21    -0.793894984830E+03   -0.85612E-01   -0.86894E-01  2045   0.964E-01    0.476E-01
RMM:  22    -0.793934908439E+03   -0.39924E-01   -0.40773E-01  2045   0.759E-01    0.246E-01
RMM:  23    -0.793970801002E+03   -0.35893E-01   -0.37070E-01  2045   0.636E-01    0.271E-01
RMM:  24    -0.793989150657E+03   -0.18350E-01   -0.19364E-01  2027   0.509E-01    0.237E-01
RMM:  25    -0.794002814341E+03   -0.13664E-01   -0.14601E-01  2049   0.425E-01    0.210E-01
RMM:  26    -0.794011690903E+03   -0.88766E-02   -0.98382E-02  1955   0.358E-01    0.313E-01
RMM:  27    -0.794018174042E+03   -0.64831E-02   -0.69327E-02  1959   0.300E-01    0.320E-01
RMM:  28    -0.794023261734E+03   -0.50877E-02   -0.56094E-02  2000   0.256E-01    0.275E-01
RMM:  29    -0.794026213494E+03   -0.29518E-02   -0.32895E-02  2050   0.210E-01    0.240E-01
RMM:  30    -0.794028641538E+03   -0.24280E-02   -0.27379E-02  2050   0.178E-01    0.225E-01
RMM:  31    -0.794030050313E+03   -0.14088E-02   -0.17081E-02  2012   0.147E-01    0.237E-01
RMM:  32    -0.794031028239E+03   -0.97793E-03   -0.13215E-02  1864   0.125E-01    0.266E-01
RMM:  33    -0.794031823930E+03   -0.79569E-03   -0.86976E-03  1966   0.107E-01    0.233E-01
RMM:  34    -0.794032571041E+03   -0.74711E-03   -0.68566E-03  2035   0.939E-02    0.146E-01
RMM:  35    -0.794032988230E+03   -0.41719E-03   -0.52115E-03  2015   0.813E-02    0.507E-02
RMM:  36    -0.794033200676E+03   -0.21245E-03   -0.36694E-03  2032   0.655E-02    0.579E-02
RMM:  37    -0.794033254733E+03   -0.54057E-04   -0.24287E-03  2029   0.538E-02    0.996E-02
RMM:  38    -0.794033555820E+03   -0.30109E-03   -0.16856E-03  1932   0.463E-02    0.506E-02
RMM:  39    -0.794033638333E+03   -0.82513E-04   -0.13740E-03  1856   0.382E-02    0.601E-02
RMM:  40    -0.794033747598E+03   -0.10926E-03   -0.92298E-04  1842   0.330E-02    0.526E-02
RMM:  41    -0.794033886761E+03   -0.13916E-03   -0.92408E-04  1844   0.290E-02    0.339E-02
RMM:  42    -0.794033948118E+03   -0.61357E-04   -0.55860E-04  1806   0.243E-02    0.306E-02
RMM:  43    -0.794033986741E+03   -0.38623E-04   -0.40210E-04  1813   0.202E-02    0.306E-02
RMM:  44    -0.794034020659E+03   -0.33917E-04   -0.30882E-04  1774   0.175E-02    0.281E-02
RMM:  45    -0.794034028227E+03   -0.75680E-05   -0.21772E-04  1738   0.151E-02    0.326E-02
RMM:  46    -0.794034048663E+03   -0.20437E-04   -0.16971E-04  1757   0.134E-02    0.301E-02
RMM:  47    -0.794034078576E+03   -0.29913E-04   -0.15414E-04  1694   0.120E-02    0.231E-02
RMM:  48    -0.794034092749E+03   -0.14173E-04   -0.10977E-04  1518   0.104E-02    0.207E-02
RMM:  49    -0.794034101257E+03   -0.85085E-05   -0.74853E-05  1316   0.904E-03    0.199E-02
RMM:  50    -0.794034108305E+03   -0.70474E-05   -0.60932E-05  1336   0.830E-03    0.188E-02
RMM:  51    -0.794034114070E+03   -0.57656E-05   -0.44873E-05  1304   0.760E-03    0.177E-02
RMM:  52    -0.794034117370E+03   -0.33000E-05   -0.35780E-05  1200   0.706E-03    0.175E-02
RMM:  53    -0.794034119673E+03   -0.23027E-05   -0.25669E-05  1086   0.660E-03    0.174E-02
RMM:  54    -0.794034121160E+03   -0.14873E-05   -0.21795E-05  1117   0.628E-03    0.174E-02
RMM:  55    -0.794034123139E+03   -0.19788E-05   -0.16260E-05  1069   0.600E-03    0.170E-02
RMM:  56    -0.794034124602E+03   -0.14632E-05   -0.13573E-05  1086   0.582E-03    0.168E-02
RMM:  57    -0.794034125807E+03   -0.12047E-05   -0.11050E-05  1081   0.566E-03    0.165E-02
RMM:  58    -0.794034126619E+03   -0.81173E-06   -0.95100E-06  1071   0.556E-03
   1 F= -.79403413E+03 E0= -.79402694E+03  d E =-.794034E+03
