 vasp.5.4.4.18Apr17-6-g9f103f2a35 (build Jan 22 2020 12:49:05) complex          
  
 executed on Bebop BDW IPS19.0.5  date 2022.10.04  11:54:04
 running on   64 total cores
 distrk:  each k-point on   64 cores,    1 groups
 distr:  one band on NCORES_PER_BAND=   8 cores,    8 groups


--------------------------------------------------------------------------------------------------------


 INCAR:
 POTCAR:    PAW_PBE Li_sv 10Sep2004               
 POTCAR:    PAW_PBE P 06Sep2000                   
 POTCAR:    PAW_PBE S 06Sep2000                   
 POTCAR:    PAW_PBE Cl 06Sep2000                  
 POTCAR:    PAW_PBE Li_sv 10Sep2004               
   VRHFIN =Li: 1s2s2p                                                           
   LEXCH  = PE                                                                  
   EATOM  =   202.7858 eV,   14.9043 Ry                                         
                                                                                
   TITEL  = PAW_PBE Li_sv 10Sep2004                                             
   LULTRA =        F    use ultrasoft PP ?                                      
   IUNSCR =        0    unscreen: 0-lin 1-nonlin 2-no                           
   RPACOR =    0.000    partial core radius                                     
   POMASS =    7.010; ZVAL   =    3.000    mass and valenz                      
   RCORE  =    1.700    outmost cutoff radius                                   
   RWIGS  =    2.050; RWIGS  =    1.085    wigner-seitz radius (au A)           
   ENMAX  =  499.034; ENMIN  =  374.276 eV                                      
   ICORE  =        2    local potential                                         
   LCOR   =        T    correct aug charges                                     
   LPAW   =        T    paw PP                                                  
   EAUG   =  628.945                                                            
   RMAX   =    1.732    core radius for proj-oper                               
   RAUG   =    1.300    factor for augmentation sphere                          
   RDEP   =    1.728    radius for radial grids                                 
   RDEPT  =    1.329    core radius for aug-charge                              
                                                                                
   Atomic configuration                                                         
    4 entries                                                                   
     n  l   j            E        occ.                                          
     1  0  0.50       -51.8549   2.0000                                         
     2  0  0.50        -2.8742   1.0000                                         
     2  1  0.50        -1.3606   0.0000                                         
     3  2  1.50        -1.3606   0.0000                                         
   Description                                                                  
     l       E           TYP  RCUT    TYP  RCUT                                 
     0    -51.8548813     23  1.400                                             
     0     -2.8742052     23  1.700                                             
     1     -1.3605826     23  1.400                                             
     2     -1.3605826     23  1.400                                             
  local pseudopotential read in
  atomic valenz-charges read in
  non local Contribution for L=           0  read in
    real space projection operators read in
  non local Contribution for L=           0  read in
    real space projection operators read in
  non local Contribution for L=           1  read in
    real space projection operators read in
    PAW grid and wavefunctions read in
 
   number of l-projection  operators is LMAX  =           3
   number of lm-projection operators is LMMAX =           5
 
 POTCAR:    PAW_PBE P 06Sep2000                   
   VRHFIN =P : s2p3                                                             
   LEXCH  = PE                                                                  
   EATOM  =   176.0430 eV,   12.9388 Ry                                         
                                                                                
   TITEL  = PAW_PBE P 06Sep2000                                                 
   LULTRA =        F    use ultrasoft PP ?                                      
   IUNSCR =        1    unscreen: 0-lin 1-nonlin 2-no                           
   RPACOR =    1.500    partial core radius                                     
   POMASS =   30.974; ZVAL   =    5.000    mass and valenz                      
   RCORE  =    1.900    outmost cutoff radius                                   
   RWIGS  =    2.330; RWIGS  =    1.233    wigner-seitz radius (au A)           
   ENMAX  =  255.040; ENMIN  =  191.280 eV                                      
   ICORE  =        2    local potential                                         
   LCOR   =        T    correct aug charges                                     
   LPAW   =        T    paw PP                                                  
   EAUG   =  342.924                                                            
   DEXC   =    0.000                                                            
   RMAX   =    1.935    core radius for proj-oper                               
   RAUG   =    1.300    factor for augmentation sphere                          
   RDEP   =    1.931    radius for radial grids                                 
   RDEPT  =    1.794    core radius for aug-charge                              
                                                                                
   Atomic configuration                                                         
    6 entries                                                                   
     n  l   j            E        occ.                                          
     1  0  0.50     -2084.0982   2.0000                                         
     2  0  0.50      -173.9859   2.0000                                         
     2  1  1.50      -124.4865   6.0000                                         
     3  0  0.50       -13.9692   2.0000                                         
     3  1  0.50        -5.5067   3.0000                                         
     3  2  1.50        -5.4423   0.0000                                         
   Description                                                                  
     l       E           TYP  RCUT    TYP  RCUT                                 
     0    -13.9691527     23  1.900                                             
     0    -11.7794650     23  1.900                                             
     1     -5.5066937     23  1.900                                             
     1     -0.2556953     23  1.900                                             
     2     -5.4423304     23  1.900                                             
  local pseudopotential read in
  partial core-charges read in
  partial kinetic energy density read in
  atomic valenz-charges read in
  non local Contribution for L=           0  read in
    real space projection operators read in
  non local Contribution for L=           0  read in
    real space projection operators read in
  non local Contribution for L=           1  read in
    real space projection operators read in
  non local Contribution for L=           1  read in
    real space projection operators read in
    PAW grid and wavefunctions read in
 
   number of l-projection  operators is LMAX  =           4
   number of lm-projection operators is LMMAX =           8
 
 POTCAR:    PAW_PBE S 06Sep2000                   
   VRHFIN =S : s2p4                                                             
   LEXCH  = PE                                                                  
   EATOM  =   276.8230 eV,   20.3459 Ry                                         
                                                                                
   TITEL  = PAW_PBE S 06Sep2000                                                 
   LULTRA =        F    use ultrasoft PP ?                                      
   IUNSCR =        1    unscreen: 0-lin 1-nonlin 2-no                           
   RPACOR =    1.500    partial core radius                                     
   POMASS =   32.066; ZVAL   =    6.000    mass and valenz                      
   RCORE  =    1.900    outmost cutoff radius                                   
   RWIGS  =    2.200; RWIGS  =    1.164    wigner-seitz radius (au A)           
   ENMAX  =  258.689; ENMIN  =  194.016 eV                                      
   ICORE  =        2    local potential                                         
   LCOR   =        T    correct aug charges                                     
   LPAW   =        T    paw PP                                                  
   EAUG   =  335.092                                                            
   DEXC   =    0.000                                                            
   RMAX   =    1.942    core radius for proj-oper                               
   RAUG   =    1.300    factor for augmentation sphere                          
   RDEP   =    1.954    radius for radial grids                                 
   RDEPT  =    1.744    core radius for aug-charge                              
                                                                                
   Atomic configuration                                                         
    6 entries                                                                   
     n  l   j            E        occ.                                          
     1  0  0.50     -2405.8406   2.0000                                         
     2  0  0.50      -211.7007   2.0000                                         
     2  1  1.50      -156.4958   6.0000                                         
     3  0  0.50       -17.2562   2.0000                                         
     3  1  0.50        -7.0085   4.0000                                         
     3  2  1.50        -6.8029   0.0000                                         
   Description                                                                  
     l       E           TYP  RCUT    TYP  RCUT                                 
     0    -17.2561641     23  1.900                                             
     0    -15.8743224     23  1.900                                             
     1     -7.0085400     23  1.900                                             
     1     -2.7779785     23  1.900                                             
     2     -6.8029130     23  1.900                                             
  local pseudopotential read in
  partial core-charges read in
  partial kinetic energy density read in
  atomic valenz-charges read in
  non local Contribution for L=           0  read in
    real space projection operators read in
  non local Contribution for L=           0  read in
    real space projection operators read in
  non local Contribution for L=           1  read in
    real space projection operators read in
  non local Contribution for L=           1  read in
    real space projection operators read in
    PAW grid and wavefunctions read in
 
   number of l-projection  operators is LMAX  =           4
   number of lm-projection operators is LMMAX =           8
 
 POTCAR:    PAW_PBE Cl 06Sep2000                  
   VRHFIN =Cl: s2p5                                                             
   LEXCH  = PE                                                                  
   EATOM  =   409.7259 eV,   30.1140 Ry                                         
                                                                                
   TITEL  = PAW_PBE Cl 06Sep2000                                                
   LULTRA =        F    use ultrasoft PP ?                                      
   IUNSCR =        1    unscreen: 0-lin 1-nonlin 2-no                           
   RPACOR =    1.500    partial core radius                                     
   POMASS =   35.453; ZVAL   =    7.000    mass and valenz                      
   RCORE  =    1.900    outmost cutoff radius                                   
   RWIGS  =    2.100; RWIGS  =    1.111    wigner-seitz radius (au A)           
   ENMAX  =  262.472; ENMIN  =  196.854 eV                                      
   ICORE  =        2    local potential                                         
   LCOR   =        T    correct aug charges                                     
   LPAW   =        T    paw PP                                                  
   EAUG   =  356.192                                                            
   DEXC   =    0.000                                                            
   RMAX   =    1.945    core radius for proj-oper                               
   RAUG   =    1.300    factor for augmentation sphere                          
   RDEP   =    2.020    radius for radial grids                                 
   RDEPT  =    1.678    core radius for aug-charge                              
                                                                                
   Atomic configuration                                                         
    6 entries                                                                   
     n  l   j            E        occ.                                          
     1  0  0.50     -2751.1850   2.0000                                         
     2  0  0.50      -252.6861   2.0000                                         
     2  1  1.50      -191.6157   6.0000                                         
     3  0  0.50       -20.6916   2.0000                                         
     3  1  0.50        -8.5949   5.0000                                         
     3  2  1.50        -8.1635   0.0000                                         
   Description                                                                  
     l       E           TYP  RCUT    TYP  RCUT                                 
     0    -20.6915656     23  1.900                                             
     0    -22.0521482     23  1.900                                             
     1     -8.5948577     23  1.900                                             
     1     -5.3847331     23  1.900                                             
     2     -8.1634956     23  1.900                                             
  local pseudopotential read in
  partial core-charges read in
  partial kinetic energy density read in
  atomic valenz-charges read in
  non local Contribution for L=           0  read in
    real space projection operators read in
  non local Contribution for L=           0  read in
    real space projection operators read in
  non local Contribution for L=           1  read in
    real space projection operators read in
  non local Contribution for L=           1  read in
    real space projection operators read in
    PAW grid and wavefunctions read in
 
   number of l-projection  operators is LMAX  =           4
   number of lm-projection operators is LMMAX =           8
 

 ----------------------------------------------------------------------------- 
|                                                                             |
|  ADVICE TO THIS USER RUNNING 'VASP/VAMP'   (HEAR YOUR MASTER'S VOICE ...):  |
|                                                                             |
|      You have a (more or less) 'large supercell' and for larger cells       |
|      it might be more efficient to use real space projection opertators     |
|      So try LREAL= Auto  in the INCAR   file.                               |
|      Mind:          For very  accurate calculation you might also keep the  |
|      reciprocal projection scheme          (i.e. LREAL=.FALSE.)             |
|                                                                             |
 ----------------------------------------------------------------------------- 

  PAW_PBE Li_sv 10Sep2004               :
 energy of atom  1       EATOM= -202.7858
 kinetic energy error for atom=    0.0143 (will be added to EATOM!!)
  PAW_PBE P 06Sep2000                   :
 energy of atom  2       EATOM= -176.0430
 kinetic energy error for atom=    0.0013 (will be added to EATOM!!)
  PAW_PBE S 06Sep2000                   :
 energy of atom  3       EATOM= -276.8230
 kinetic energy error for atom=    0.0020 (will be added to EATOM!!)
  PAW_PBE Cl 06Sep2000                  :
 energy of atom  4       EATOM= -409.7259
 kinetic energy error for atom=    0.0030 (will be added to EATOM!!)
 
 
 POSCAR: New POSCAR file                         
  positions in cartesian coordinates
  No initial velocities read in
 exchange correlation table for  LEXCH =        8
   RHO(1)=    0.500       N(1)  =     2000
   RHO(2)=  100.500       N(2)  =     4000
 


--------------------------------------------------------------------------------------------------------


 ion  position               nearest neighbor table
   1  0.743  0.823  0.178- 118 2.38 153 2.43 156 2.58
   2  0.563  0.678  0.014- 196 2.56 158 2.63 177 2.67
   3  0.667  0.634  0.187- 177 2.40 118 2.57 165 2.58 130 2.58
   4  0.828  0.926  1.000- 151 1.89 155 2.44 153 2.60 156 2.64 107 2.65
   5  0.571  0.782  0.284- 171 2.31 191 2.32 177 2.33 118 2.51  83 2.60
   6  0.902  0.766  0.908- 204 2.44 151 2.61
   7  0.235  0.042  0.042- 198 2.46 178 2.48
   8  0.223  0.859  0.295- 202 2.38
   9  0.097  0.985  0.361- 202 2.54 125 2.59
  10  0.214  0.734  0.058- 201 2.10 159 2.44 170 2.47
  11  0.104  0.694  0.889- 144 2.30 180 2.49
  12  0.326  0.850  0.438- 127 2.21 125 2.39  47 2.57 171 2.58
  13  0.335  0.493  0.591- 208 2.20 142 2.51
  14  0.504  0.799  0.529- 120 2.40 179 2.48
  15  0.708  0.856  0.773- 150 2.37 151 2.51 115 2.57 116 2.60
  16  0.351  0.636  0.444- 172 2.25 142 2.48 120 2.64
  17  0.709  0.524  0.749- 174 2.32 176 2.49 117 2.56
  18  0.162  0.723  0.628- 144 2.29 141 2.34
  19  0.996  0.907  0.869- 203 2.40 204 2.57 155 2.65
  20  0.936  0.467  0.987- 205 2.19 186 2.48 133 2.57 180 2.60
  21  0.162  0.480  0.687- 181 2.31 143 2.46 208 2.47
  22  0.530  0.905  0.854- 196 2.20 193 2.59
  23  0.014  0.603  0.740- 135 2.45
  24  0.858  0.598  0.834- 135 2.36 180 2.44 168 2.69
  25  0.364  0.483  0.881- 181 2.38 160 2.43 158 2.55 112 2.74
  26  0.090  0.517  0.870- 205 2.14 134 2.41 180 2.42
  27  0.261  0.611  0.834- 197 2.23 181 2.34 159 2.47 144 2.49
  28  0.426  0.694  0.925- 158 2.24 196 2.33 197 2.55
  29  0.057  0.310  0.694- 200 2.25 189 2.39 134 2.44
  30  0.534  0.644  0.721- 137 2.46 179 2.50 117 2.50 197 2.57  98 2.58
  31  0.268  0.256  0.029- 182 2.33 198 2.47
  32  0.357  0.167  0.134- 182 2.35 194 2.40  99 2.61
  33  0.472  0.070  0.034- 193 2.33 182 2.35
  34  0.434  0.327  0.038- 160 2.19 121 2.58 182 2.58
  35  0.624  0.392  0.183- 190 1.98 165 2.29
  36  0.083  0.159  0.126- 123 2.28 198 2.48
  37  0.792  0.109  0.487- 199 2.39 113 2.43
  38  0.814  0.309  0.684- 183 2.18 102 2.57 174 2.64
  39  0.636  0.993  0.947- 193 2.20 149 2.51 150 2.64
  40  0.579  0.298  0.699- 173 2.09 103 2.38 183 2.54
  41  0.862  0.179  0.806- 189 2.33 152 2.40 183 2.69
  42  0.772  0.310  0.867- 133 2.22 183 2.33 167 2.69
  43  0.470  0.219  0.361- 122 2.37 145 2.39 140 2.63 148 2.64
  44  0.253  0.012  0.724- 187 2.30 184 2.60 126 2.64
  45  0.334  0.088  0.323- 145 2.35
  46  0.994  0.139  0.620- 200 2.38 199 2.54
  47  0.415  0.973  0.486- 145 2.38  90 2.54  12 2.57
  48  0.940  0.301  0.422- 129 2.38 185 2.42
  49  0.395  0.421  0.407- 138 2.39 195 2.50 122 2.56
  50  0.012  0.221  0.260- 123 2.11 185 2.44 163 2.53 161 2.63
  51  0.189  0.278  0.313- 185 2.42 122 2.46 124 2.54 123 2.60
  52  0.986  0.388  0.193- 186 2.26 163 2.39 164 2.64
  53  0.134  0.460  0.311- 185 2.30  60 2.42 131 2.63 169 2.67
  54  0.283  0.498  0.193- 169 2.41 157 2.50 108 2.54 124 2.57
  55  0.793  0.605  0.301- 154 2.34 118 2.43 130 2.47 101 2.72
  56  0.091  0.537  0.077- 186 2.23 205 2.53
  57  0.825  0.499  0.133- 186 2.27 164 2.64 154 2.66
  58  0.103  0.712  0.286- 202 2.37 169 2.47 131 2.69
  59  0.951  0.668  0.041- 180 2.26 201 2.39 156 2.49
  60  0.107  0.409  0.447- 185 2.27 195 2.31  53 2.42 143 2.56
  61  0.444  0.016  0.766- 175 2.25 187 2.36  93 2.54 119 2.58
  62  0.368  0.934  0.925- 187 2.40 178 2.59
  63  0.400  0.861  0.649- 179 2.20 127 2.31 119 2.43 187 2.55
  64  0.095  0.855  0.725- 203 1.54 144 2.63
  65  0.216  0.841  0.849- 144 2.52 187 2.54 178 2.61
  66  0.321  0.746  0.746- 197 2.13 179 2.45 144 2.48
  67  0.043  0.820  0.465- 188 2.35 128 2.39 141 2.52
  68  0.867  0.919  0.505- 188 2.39 207 2.55 116 2.60
  69  0.891  0.781  0.261- 188 2.46 107 2.62
  70  0.882  0.741  0.541- 206 2.20 141 2.48 188 2.65
  71  0.785  0.772  0.408- 188 2.18 118 2.21 206 2.30
  72  0.740  0.117  0.688- 183 2.33 113 2.35
  73  0.995  0.325  0.859- 189 1.99 133 2.33 134 2.34
  74  0.385  0.168  0.863- 182 2.17 175 2.20  91 2.49 184 2.53
  75  0.136  0.166  0.844- 184 2.29 198 2.44 189 2.46
  76  0.280  0.335  0.779- 181 2.31  91 2.45
  77  0.106  0.858  0.064- 201 2.07 155 2.27 178 2.35
  78  0.217  0.453  0.957- 160 2.12 205 2.46 181 2.52 159 2.57 108 2.76
  79  0.588  0.425  0.384- 190 2.29 130 2.41 132 2.48
  80  0.490  0.560  0.130- 177 2.48 158 2.51 165 2.67
  81  0.719  0.223  0.322- 161 2.27 147 2.38 148 2.43 132 2.53
  82  0.527  0.586  0.297- 130 2.30 190 2.47 157 2.50
  83  0.427  0.716  0.249- 177 2.12 171 2.15 157 2.40 170 2.48 111 2.60   5 2.60
  84  0.763  0.406  0.357- 132 2.50 164 2.53 129 2.65
  85  0.825  0.043  0.270- 207 2.31 153 2.43 161 2.50
  86  0.500  0.888  0.135- 191 2.15 193 2.29
  87  0.647  0.671  0.402- 120 2.39 118 2.39 206 2.62
  88  0.689  0.946  0.341- 147 2.27 114 2.29 191 2.48
  89  0.481  0.028  0.254- 105 2.34 194 2.37 145 2.38 191 2.45
  90  0.527  0.941  0.381- 145 2.37 114 2.50  47 2.54 191 2.60
  91  0.383  0.236  0.727- 184 2.42  76 2.45  74 2.49 173 2.58 192 2.59 139 2.60
  92  0.808  0.558  0.575- 206 2.19 135 2.26 136 2.41
  93  0.575  0.086  0.712- 192 2.28  61 2.54 119 2.58 150 2.59
  94  0.202  0.185  0.650- 184 2.20 200 2.35
  95  0.583  0.104  0.477- 145 2.45 147 2.52 113 2.52 140 2.66
  96  0.626  0.189  0.872- 175 2.53 183 2.61 149 2.63 173 2.65
  97  0.698  0.921  0.577- 116 1.95 113 1.98 115 2.08 114 2.18
  98  0.631  0.694  0.605- 117 2.05 137 2.11  30 2.58 115 2.86
  99  0.348  0.296  0.230- 122 2.04 124 2.09 121 2.18  32 2.61
 100  0.215  0.956  0.532- 126 1.89 125 2.01 128 2.15 127 2.20
 101  0.931  0.559  0.386- 129 2.06 131 2.32 154 2.39  55 2.72
 102  0.893  0.439  0.732- 135 2.05 134 2.10 133 2.16  38 2.57
 103  0.534  0.328  0.564- 140 1.67 138 2.02 139 2.24  40 2.38
 104  0.099  0.604  0.518- 143 2.12 131 2.15 141 2.15
 105  0.604  0.106  0.253- 147 2.05 146 2.07 148 2.15  89 2.34
 106  0.794  0.008  0.854- 152 1.99 150 2.04 151 2.06 149 2.14
 107  0.905  0.836  0.112- 156 1.64 155 2.05 153 2.29  69 2.62   4 2.65
 108  0.333  0.535  0.051- 159 2.08 160 2.09 158 2.14  54 2.54  78 2.76
 109  0.836  0.264  0.184- 164 1.71 161 1.93 163 2.05 162 2.22
 110  0.672  0.475  0.991- 167 1.66 165 1.88 168 1.93 166 2.08
 111  0.274  0.663  0.253- 170 2.05 172 2.09 157 2.10 169 2.13  83 2.60
 112  0.516  0.411  0.849- 176 2.01 173 2.12 166 2.13  25 2.74
 113  0.689  0.044  0.575-  97 1.98  72 2.35  37 2.43  95 2.52
 114  0.647  0.884  0.459-  97 2.18  88 2.29  90 2.50
 115  0.609  0.864  0.650-  97 2.08 119 2.22  15 2.57  98 2.86
 116  0.790  0.870  0.636-  97 1.95  15 2.60  68 2.60
 117  0.687  0.678  0.716-  98 2.05  30 2.50  17 2.56
 118  0.720  0.738  0.294-  71 2.21   1 2.38  87 2.39  55 2.43   5 2.51   3 2.57
 119  0.512  0.961  0.634- 115 2.22  63 2.43  61 2.58  93 2.58
 120  0.502  0.697  0.422- 171 1.94  87 2.39  14 2.40  16 2.64
 121  0.425  0.396  0.180-  99 2.18 190 2.29  34 2.58
 122  0.337  0.284  0.353-  99 2.04  43 2.37  51 2.46  49 2.56
 123  0.118  0.144  0.259-  50 2.11  36 2.28  51 2.60
 124  0.238  0.345  0.181-  99 2.09  51 2.54  54 2.57
 125  0.248  0.975  0.415- 100 2.01  12 2.39   9 2.59
 126  0.278  0.048  0.570- 100 1.89  44 2.64
 127  0.285  0.844  0.566- 100 2.20  12 2.21  63 2.31
 128  0.082  0.948  0.526- 100 2.15  67 2.39
 129  0.903  0.444  0.434- 101 2.06  48 2.38  84 2.65
 130  0.659  0.530  0.305-  82 2.30  79 2.41  55 2.47 190 2.56   3 2.58
 131  0.072  0.587  0.391- 104 2.15 101 2.32  53 2.63  58 2.69
 132  0.674  0.311  0.441- 140 2.07  79 2.48  84 2.50  81 2.53
 133  0.873  0.404  0.857- 102 2.16  42 2.22  73 2.33  20 2.57 134 2.79
 134  0.018  0.436  0.768- 102 2.10  73 2.34  26 2.41  29 2.44 133 2.79
 135  0.874  0.560  0.697- 102 2.05  92 2.26  24 2.36  23 2.45
 136  0.676  0.494  0.545- 174 2.07 137 2.34  92 2.41
 137  0.568  0.580  0.589-  98 2.11 136 2.34  30 2.46
 138  0.485  0.435  0.522- 103 2.02  49 2.39
 139  0.428  0.237  0.575- 192 1.96 103 2.24  91 2.60 140 2.63
 140  0.561  0.267  0.485- 103 1.67 132 2.07  43 2.63 139 2.63  95 2.66
 141  0.030  0.706  0.570- 104 2.15  18 2.34  70 2.48  67 2.52
 142  0.349  0.648  0.595- 179 2.00  16 2.48  13 2.51
 143  0.062  0.491  0.573- 104 2.12  21 2.46  60 2.56
 144  0.171  0.717  0.767-  18 2.29  11 2.30  66 2.48  27 2.49  65 2.52  64 2.63
 145  0.463  0.073  0.390-  45 2.35  90 2.37  89 2.38  47 2.38  43 2.39  95 2.45
 146  0.686  0.103  0.157- 105 2.07 162 2.27
 147  0.676  0.086  0.355- 105 2.05  88 2.27  81 2.38  95 2.52
 148  0.587  0.238  0.250- 105 2.15  81 2.43  43 2.64
 149  0.748  0.101  0.935- 106 2.14  39 2.51  96 2.63
 150  0.684  1.000  0.793- 106 2.04  15 2.37  93 2.59  39 2.64
 151  0.795  0.887  0.896-   4 1.89 106 2.06  15 2.51   6 2.61
 152  0.877  0.036  0.768- 106 1.99  41 2.40
 153  0.828  0.946  0.157- 107 2.29   1 2.43  85 2.43   4 2.60
 154  0.922  0.574  0.242- 186 2.22  55 2.34 101 2.39  57 2.66
 155  0.975  0.900  0.029- 107 2.05  77 2.27   4 2.44  19 2.65
 156  0.841  0.775  0.063- 107 1.64  59 2.49   1 2.58   4 2.64
 157  0.372  0.582  0.287- 111 2.10  83 2.40  54 2.50  82 2.50
 158  0.443  0.571  0.985- 108 2.14  28 2.24  80 2.51  25 2.55   2 2.63
 159  0.249  0.606  0.984- 108 2.08  10 2.44  27 2.47  78 2.57
 160  0.332  0.413  0.008- 108 2.09  78 2.12  34 2.19  25 2.43
 161  0.851  0.196  0.280- 109 1.93  81 2.27  85 2.50  50 2.63
 162  0.735  0.223  0.101- 109 2.22 146 2.27
 163  0.949  0.263  0.124- 109 2.05  52 2.39  50 2.53
 164  0.826  0.362  0.222- 109 1.71  84 2.53  52 2.64  57 2.64
 165  0.644  0.504  0.098- 110 1.88  35 2.29   3 2.58  80 2.67
 166  0.602  0.378  0.943- 110 2.08 112 2.13 167 2.72
 167  0.759  0.420  0.990- 110 1.66 168 2.55  42 2.69 166 2.72
 168  0.723  0.558  0.923- 110 1.93 167 2.55  24 2.69
 169  0.168  0.592  0.218- 111 2.13  54 2.41  58 2.47  53 2.67
 170  0.298  0.763  0.180- 111 2.05  10 2.47  83 2.48
 171  0.449  0.785  0.359- 120 1.94  83 2.15   5 2.31  12 2.58
 172  0.249  0.700  0.373- 111 2.09  16 2.25
 173  0.511  0.287  0.807-  40 2.09 112 2.12  91 2.58  96 2.65
 174  0.703  0.424  0.647- 136 2.07  17 2.32  38 2.64
 175  0.500  0.094  0.865-  74 2.20  61 2.25  96 2.53
 176  0.561  0.476  0.754- 112 2.01  17 2.49
 177  0.533  0.701  0.173-  83 2.12   5 2.33   3 2.40  80 2.48   2 2.67
 178  0.231  0.894  0.998-  77 2.35   7 2.48  62 2.59  65 2.61
 179  0.431  0.728  0.643- 142 2.00  63 2.20  66 2.45  14 2.48  30 2.50
 180  0.981  0.607  0.921-  59 2.26  26 2.42  24 2.44  11 2.49  20 2.60
 181  0.238  0.471  0.806-  21 2.31  76 2.31  27 2.34  25 2.38  78 2.52
 182  0.386  0.181  0.994-  74 2.17  31 2.33  33 2.35  32 2.35  34 2.58
 183  0.718  0.244  0.753-  38 2.18  42 2.33  72 2.33  40 2.54  96 2.61  41 2.69
 184  0.258  0.166  0.772-  94 2.20  75 2.29  91 2.42  74 2.53  44 2.60
 185  0.055  0.343  0.336-  60 2.27  53 2.30  48 2.42  51 2.42  50 2.44
 186  0.966  0.511  0.129- 154 2.22  56 2.23  52 2.26  57 2.27  20 2.48
 187  0.339  0.914  0.783-  44 2.30  61 2.36  62 2.40  65 2.54  63 2.55
 188  0.911  0.822  0.404-  71 2.18  67 2.35  68 2.39  69 2.46  70 2.65
 189  0.001  0.220  0.796-  73 1.99  41 2.33  29 2.39  75 2.46
 190  0.537  0.440  0.254-  35 1.98 121 2.29  79 2.29  82 2.47 130 2.56
 191  0.583  0.917  0.234-  86 2.15   5 2.32  89 2.45  88 2.48  90 2.60
 192  0.471  0.141  0.634- 139 1.96  93 2.28  91 2.59
 193  0.527  0.939  0.008-  39 2.20  86 2.29  33 2.33  22 2.59
 194  0.370  0.021  0.159-  89 2.37  32 2.40
 195  0.246  0.450  0.441-  60 2.31  49 2.50
 196  0.542  0.775  0.893-  22 2.20  28 2.33   2 2.56
 197  0.388  0.638  0.784-  66 2.13  27 2.23  28 2.55  30 2.57
 198  0.154  0.161  0.992-  75 2.44   7 2.46  31 2.47  36 2.48
 199  0.870  0.214  0.557-  37 2.39  46 2.54
 200  0.090  0.244  0.578-  29 2.25  94 2.35  46 2.38
 201  0.083  0.731  0.066-  77 2.07  10 2.10  59 2.39
 202  0.077  0.857  0.272-  58 2.37   8 2.38   9 2.54
 203  0.102  0.938  0.771-  64 1.54  19 2.40
 204  0.948  0.794  0.769-   6 2.44  19 2.57
 205  0.065  0.431  0.966-  26 2.14  20 2.19  78 2.46  56 2.53
 206  0.773  0.668  0.503-  92 2.19  70 2.20  71 2.30  87 2.62
 207  0.902  0.014  0.385-  85 2.31  68 2.55
 208  0.262  0.382  0.624-  13 2.20  21 2.47
 

IMPORTANT INFORMATION: All symmetrisations will be switched off!
NOSYMM: (Re-)initialisation of all symmetry stuff for point group C_1.

 
 
 KPOINTS: Regular mesh centered at Gamma          

Automatic generation of k-mesh.
Space group operators:
 irot       det(A)        alpha          n_x          n_y          n_z        tau_x        tau_y        tau_z
    1     1.000000     0.000001     1.000000     0.000000     0.000000     0.000000     0.000000     0.000000
 
 Subroutine IBZKPT returns following result:
 ===========================================
 
 Found      1 irreducible k-points:
 
 Following reciprocal coordinates:
            Coordinates               Weight
  0.000000  0.000000  0.000000      1.000000
 
 Following cartesian coordinates:
            Coordinates               Weight
  0.000000  0.000000  0.000000      1.000000
 


--------------------------------------------------------------------------------------------------------




 Dimension of arrays:
   k-points           NKPTS =      1   k-points in BZ     NKDIM =      1   number of bands    NBANDS=    592
   number of dos      NEDOS =    301   number of ions     NIONS =    208
   non local maximal  LDIM  =      4   non local SUM 2l+1 LMDIM =      8
   total plane-waves  NPLWV = 729000
   max r-space proj   IRMAX =      1   max aug-charges    IRDMAX=   5618
   dimension x,y,z NGX =    90 NGY =   90 NGZ =   90
   dimension x,y,z NGXF=   180 NGYF=  180 NGZF=  180
   support grid    NGXF=   180 NGYF=  180 NGZF=  180
   ions per type =              96  16  80  16
   NGX,Y,Z   is equivalent  to a cutoff of   9.34,  9.29,  9.11 a.u.
   NGXF,Y,Z  is equivalent  to a cutoff of  18.67, 18.59, 18.22 a.u.

 SYSTEM =  LPSC                                    
 POSCAR =  New POSCAR file                         

 Startparameter for this run:
   NWRITE =      2    write-flag & timer
   PREC   = normal    normal or accurate (medium, high low for compatibility)
   ISTART =      0    job   : 0-new  1-cont  2-samecut
   ICHARG =      2    charge: 1-file 2-atom 10-const
   ISPIN  =      1    spin polarized calculation?
   LNONCOLLINEAR =      F non collinear calculations
   LSORBIT =      F    spin-orbit coupling
   INIWAV =      1    electr: 0-lowe 1-rand  2-diag
   LASPH  =      F    aspherical Exc in radial PAW
   METAGGA=      F    non-selfconsistent MetaGGA calc.

 Electronic Relaxation 1
   ENCUT  =  500.0 eV  36.75 Ry    6.06 a.u.  29.22 29.35 29.95*2*pi/ulx,y,z
   ENINI  =  500.0     initial cutoff
   ENAUG  =  628.9 eV  augmentation charge cutoff
   NELM   =    100;   NELMIN=  2; NELMDL=-12     # of ELM steps 
   EDIFF  = 0.1E-05   stopping-criterion for ELM
   LREAL  =      F    real-space projection
   NLSPLINE    = F    spline interpolate recip. space projectors
   LCOMPAT=      F    compatible to vasp.4.4
   GGA_COMPAT  = T    GGA compatible to vasp.4.4-vasp.4.6
   LMAXPAW     = -100 max onsite density
   LMAXMIX     =    2 max onsite mixed and CHGCAR
   VOSKOWN=      0    Vosko Wilk Nusair interpolation
   ROPT   =    0.00000   0.00000   0.00000   0.00000
 Ionic relaxation
   EDIFFG = -.1E-01   stopping-criterion for IOM
   NSW    =      1    number of steps for IOM
   NBLOCK =      1;   KBLOCK =      1    inner block; outer block 
   IBRION =      2    ionic relax: 0-MD 1-quasi-New 2-CG
   NFREE  =      1    steps in history (QN), initial steepest desc. (CG)
   ISIF   =      2    stress and relaxation
   IWAVPR =     11    prediction:  0-non 1-charg 2-wave 3-comb
   ISYM   =      0    0-nonsym 1-usesym 2-fastsym
   LCORR  =      T    Harris-Foulkes like correction to forces

   POTIM  = 0.5000    time-step for ionic-motion
   TEIN   =    0.0    initial temperature
   TEBEG  =    0.0;   TEEND  =   0.0 temperature during run
   SMASS  =  -3.00    Nose mass-parameter (am)
   estimated Nose-frequenzy (Omega)   =  0.10E-29 period in steps =****** mass=  -0.587E-26a.u.
   SCALEE = 1.0000    scale energy and forces
   NPACO  =    256;   APACO  = 16.0  distance and # of slots for P.C.
   PSTRESS=    0.0 pullay stress

  Mass of Ions in am
   POMASS =   7.01 30.97 32.07 35.45
  Ionic Valenz
   ZVAL   =   3.00  5.00  6.00  7.00
  Atomic Wigner-Seitz radii
   RWIGS  =  -1.00 -1.00 -1.00 -1.00
  virtual crystal weights 
   VCA    =   1.00  1.00  1.00  1.00
   NELECT =     960.0000    total number of electrons
   NUPDOWN=      -1.0000    fix difference up-down

 DOS related values:
   EMIN   =  10.00;   EMAX   =-10.00  energy-range for DOS
   EFERMI =   0.00
   ISMEAR =     0;   SIGMA  =   0.05  broadening in eV -4-tet -1-fermi 0-gaus

 Electronic relaxation 2 (details)
   IALGO  =     48    algorithm
   LDIAG  =      T    sub-space diagonalisation (order eigenvalues)
   LSUBROT=      F    optimize rotation matrix (better conditioning)
   TURBO    =      0    0=normal 1=particle mesh
   IRESTART =      0    0=no restart 2=restart with 2 vectors
   NREBOOT  =      0    no. of reboots
   NMIN     =      0    reboot dimension
   EREF     =   0.00    reference energy to select bands
   IMIX   =      4    mixing-type and parameters
     AMIX     =   0.40;   BMIX     =  1.00
     AMIX_MAG =   1.60;   BMIX_MAG =  1.00
     AMIN     =   0.10
     WC   =   100.;   INIMIX=   1;  MIXPRE=   1;  MAXMIX= -45

 Intra band minimization:
   WEIMIN = 0.0010     energy-eigenvalue tresh-hold
   EBREAK =  0.42E-09  absolut break condition
   DEPER  =   0.30     relativ break condition  

   TIME   =   0.40     timestep for ELM

  volume/ion in A,a.u.               =      20.38       137.50
  Fermi-wavevector in a.u.,A,eV,Ry     =   0.997951  1.885854 13.550121  0.995906
  Thomas-Fermi vector in A             =   2.130142
 
 Write flags
   LWAVE        =      F    write WAVECAR
   LDOWNSAMPLE  =      F    k-point downsampling of WAVECAR
   LCHARG       =      F    write CHGCAR
   LVTOT        =      F    write LOCPOT, total local potential
   LVHAR        =      F    write LOCPOT, Hartree potential only
   LELF         =      F    write electronic localiz. function (ELF)
   LORBIT       =     11    0 simple, 1 ext, 2 COOP (PROOUT), +10 PAW based schemes


 Dipole corrections
   LMONO  =      F    monopole corrections only (constant potential shift)
   LDIPOL =      F    correct potential (dipole corrections)
   IDIPOL =      0    1-x, 2-y, 3-z, 4-all directions 
   EPSILON=  1.0000000 bulk dielectric constant

 Exchange correlation treatment:
   GGA     =    --    GGA type
   LEXCH   =     8    internal setting for exchange type
   VOSKOWN=      0    Vosko Wilk Nusair interpolation
   LHFCALC =     F    Hartree Fock is set to
   LHFONE  =     F    Hartree Fock one center treatment
   AEXX    =    0.0000 exact exchange contribution

 Linear response parameters
   LEPSILON=     F    determine dielectric tensor
   LRPA    =     F    only Hartree local field effects (RPA)
   LNABLA  =     F    use nabla operator in PAW spheres
   LVEL    =     F    velocity operator in full k-point grid
   LINTERFAST=   F  fast interpolation
   KINTER  =     0    interpolate to denser k-point grid
   CSHIFT  =0.1000    complex shift for real part using Kramers Kronig
   OMEGAMAX=  -1.0    maximum frequency
   DEG_THRESHOLD= 0.2000000E-02 threshold for treating states as degnerate
   RTIME   =   -0.100 relaxation time in fs
  (WPLASMAI=    0.000 imaginary part of plasma frequency in eV, 0.658/RTIME)
   DFIELD  = 0.0000000 0.0000000 0.0000000 field for delta impulse in time
 
 Orbital magnetization related:
   ORBITALMAG=     F  switch on orbital magnetization
   LCHIMAG   =     F  perturbation theory with respect to B field
   DQ        =  0.001000  dq finite difference perturbation B field
   LLRAUG    =     F  two centre corrections for induced B field



--------------------------------------------------------------------------------------------------------


 conjugate gradient relaxation of ions
 charge density and potential will be updated during run
 non-spin polarized calculation
 RMM-DIIS sequential band-by-band
 perform sub-space diagonalisation
    before iterative eigenvector-optimisation
 modified Broyden-mixing scheme, WC =      100.0
 initial mixing is a Kerker type mixing with AMIX =  0.4000 and BMIX =      1.0000
 Hartree-type preconditioning will be used
 using additional bands          112
 reciprocal scheme for non local part
 use partial core corrections
 calculate Harris-corrections to forces 
   (improved forces if not selfconsistent)
 use gradient corrections 
 use of overlap-Matrix (Vanderbilt PP)
 Gauss-broadening in eV      SIGMA  =   0.05


--------------------------------------------------------------------------------------------------------


  energy-cutoff  :      500.00
  volume of cell :     4238.07
      direct lattice vectors                 reciprocal lattice vectors
    16.026082000  0.000000000  0.000000000     0.062398283  0.000000000  0.000000000
     0.000000000 16.100000000  0.000000000     0.000000000  0.062111801  0.000000000
     0.000000000  0.000000000 16.425367000     0.000000000  0.000000000  0.060881440

  length of vectors
    16.026082000 16.100000000 16.425367000     0.062398283  0.062111801  0.060881440


 
 k-points in units of 2pi/SCALE and weight: Regular mesh centered at Gamma          
   0.00000000  0.00000000  0.00000000       1.000
 
 k-points in reciprocal lattice and weights: Regular mesh centered at Gamma          
   0.00000000  0.00000000  0.00000000       1.000
 
 position of ions in fractional coordinates (direct lattice) 
   0.74268308  0.82330435  0.17778355
   0.56252676  0.67814286  0.01438939
   0.66660710  0.63437888  0.18664301
   0.82841832  0.92570186  0.99955149
   0.57070281  0.78247826  0.28423414
   0.90209198  0.76607453  0.90779707
   0.23499131  0.04161205  0.04169758
   0.22314437  0.85852795  0.29465704
   0.09677849  0.98453416  0.36098128
   0.21385077  0.73351553  0.05755165
   0.10426192  0.69446584  0.88862550
   0.32585569  0.85006211  0.43773634
   0.33500141  0.49291118  0.59107051
   0.50370452  0.79914286  0.52908711
   0.70836403  0.85609938  0.77268898
   0.35055792  0.63601242  0.44393102
   0.70854498  0.52412422  0.74908524
   0.16184742  0.72298137  0.62769983
   0.99613867  0.90667702  0.86926520
   0.93557490  0.46749379  0.98742999
   0.16188299  0.48039006  0.68677309
   0.52955052  0.90524845  0.85364303
   0.01389073  0.60338820  0.74026961
   0.85800759  0.59832857  0.83411835
   0.36430863  0.48271988  0.88124667
   0.08971188  0.51653106  0.86960005
   0.26091842  0.61083168  0.83428882
   0.42554943  0.69447205  0.92456990
   0.05669545  0.31037205  0.69397536
   0.53431088  0.64392547  0.72097628
   0.26811731  0.25648696  0.02923265
   0.35658310  0.16732484  0.13413095
   0.47248105  0.06993478  0.03365423
   0.43375043  0.32728137  0.03795982
   0.62410763  0.39221491  0.18264067
   0.08325865  0.15889379  0.12583585
   0.79170941  0.10880870  0.48690906
   0.81423519  0.30860497  0.68358290
   0.63583850  0.99330435  0.94666378
   0.57913906  0.29780745  0.69888849
   0.86196364  0.17863478  0.80622856
   0.77237219  0.31024845  0.86672645
   0.46957453  0.21854907  0.36099102
   0.25285407  0.01158932  0.72443435
   0.33398494  0.08806211  0.32339125
   0.99384241  0.13949006  0.61969392
   0.41528616  0.97314907  0.48618396
   0.94031717  0.30119255  0.42226332
   0.39489877  0.42076460  0.40696442
   0.01206639  0.22104348  0.25952114
   0.18935383  0.27790186  0.31311690
   0.98614246  0.38808137  0.19278230
   0.13377817  0.45986832  0.31054222
   0.28258310  0.49799068  0.19291867
   0.79276395  0.60514286  0.30070074
   0.09112770  0.53712981  0.07664060
   0.82486786  0.49859006  0.13281043
   0.10283237  0.71229814  0.28608676
   0.95060040  0.66797516  0.04133618
   0.10728948  0.40931863  0.44713156
   0.44395380  0.01596360  0.76557802
   0.36839010  0.93367702  0.92456990
   0.39970156  0.86084472  0.64861869
   0.09498329  0.85517391  0.72459264
   0.21645528  0.84103727  0.84883339
   0.32145411  0.74586957  0.74561500
   0.04312932  0.81955901  0.46526753
   0.86665599  0.91932298  0.50539632
   0.89094140  0.78053416  0.26133784
   0.88207461  0.74113043  0.54111059
   0.78465841  0.77200000  0.40789652
   0.73984396  0.11706646  0.68774719
   0.99502798  0.32532422  0.85858660
   0.38504483  0.16803913  0.86261086
   0.13569692  0.16630745  0.84433425
   0.27958923  0.33549689  0.77906326
   0.10577071  0.85777640  0.06421713
   0.21697256  0.45275776  0.95689795
   0.58757468  0.42495466  0.38424590
   0.49005864  0.55969689  0.13023697
   0.71906533  0.22306894  0.32156907
   0.52716066  0.58627081  0.29725485
   0.42729970  0.71558385  0.24933202
   0.76324332  0.40569317  0.35683708
   0.82533585  0.04332484  0.26989473
   0.50035748  0.88750932  0.13538084
   0.64707019  0.67132298  0.40229116
   0.68920776  0.94571429  0.34052329
   0.48064586  0.02775199  0.25362173
   0.52666959  0.94093168  0.38064355
   0.38273297  0.23639503  0.72659564
   0.80769585  0.55846087  0.57516523
   0.57480300  0.08586460  0.71214847
   0.20220351  0.18533043  0.65040860
   0.58281806  0.10370373  0.47744443
   0.62626661  0.18885652  0.87228492
   0.69849886  0.92098758  0.57659899
   0.63095272  0.69350311  0.60485772
   0.34835339  0.29630124  0.22958269
   0.21510872  0.95634783  0.53180608
   0.93070159  0.55875342  0.38614480
   0.89250136  0.43904286  0.73177056
   0.53441571  0.32772733  0.56403915
   0.09897428  0.60390621  0.51830014
   0.60399728  0.10572422  0.25336481
   0.79428646  0.00752602  0.85379523
   0.90515573  0.83601863  0.11192140
   0.33285366  0.53513602  0.05090979
   0.83649890  0.26396398  0.18407503
   0.67156776  0.47521180  0.99077238
   0.27420177  0.66278882  0.25310119
   0.51619354  0.41133665  0.84922912
   0.68860249  0.04381795  0.57471410
   0.64707019  0.88413043  0.45949293
   0.60936042  0.86407453  0.64987285
   0.78989362  0.86954037  0.63633281
   0.68663071  0.67827950  0.71603271
   0.72041314  0.73777019  0.29379252
   0.51221690  0.96126708  0.63397670
   0.50188125  0.69727950  0.42210807
   0.42482061  0.39639006  0.17958625
   0.33717536  0.28358447  0.35264174
   0.11804070  0.14352484  0.25932876
   0.23832088  0.34486025  0.18138895
   0.24844313  0.97452795  0.41535815
   0.27751886  0.04788025  0.56965181
   0.28459545  0.84365217  0.56578827
   0.08161196  0.94848447  0.52636023
   0.90326507  0.44367702  0.43417843
   0.65852028  0.52954845  0.30518344
   0.07235892  0.58744783  0.39110542
   0.67405121  0.31110124  0.44098254
   0.87316413  0.40389379  0.85724721
   0.01798967  0.43571304  0.76822028
   0.87418747  0.55976522  0.69669067
   0.67569229  0.49354907  0.54465084
   0.56758165  0.57977081  0.58894696
   0.48546239  0.43506646  0.52196094
   0.42826188  0.23749130  0.57487422
   0.56098116  0.26745280  0.48509784
   0.02968380  0.70567081  0.56988620
   0.34887878  0.64845342  0.59456875
   0.06161412  0.49059689  0.57345751
   0.17079783  0.71651553  0.76674086
   0.46253663  0.07340559  0.39014714
   0.68644351  0.10332236  0.15650183
   0.67557373  0.08555590  0.35477807
   0.58745737  0.23804907  0.25001633
   0.74827397  0.10075031  0.93501107
   0.68354823  0.99997516  0.79266418
   0.79473573  0.88702484  0.89624786
   0.87715762  0.03578776  0.76816548
   0.82755099  0.94629193  0.15668447
   0.92160392  0.57393478  0.24154224
   0.97536004  0.90024224  0.02896416
   0.84062343  0.77544099  0.06266709
   0.37158614  0.58224845  0.28653424
   0.44260288  0.57076273  0.98521391
   0.24917132  0.60647516  0.98389278
   0.33171801  0.41260807  0.00820457
   0.85115002  0.19586087  0.27992799
   0.73531385  0.22294286  0.10064554
   0.94868478  0.26254658  0.12424076
   0.82634670  0.36217702  0.22232441
   0.64360709  0.50400932  0.09839232
   0.60224264  0.37783478  0.94265778
   0.75921239  0.41983354  0.98951823
   0.72324602  0.55830807  0.92301743
   0.16808288  0.59200497  0.21766089
   0.29828002  0.76337267  0.18012687
   0.44871853  0.78459006  0.35932591
   0.24930672  0.69975155  0.37291526
   0.51122788  0.28682298  0.80715396
   0.70339712  0.42406832  0.64730365
   0.50031193  0.09435466  0.86451645
   0.56091189  0.47601615  0.75437584
   0.53304232  0.70102484  0.17307132
   0.23087178  0.89422360  0.99811468
   0.43088323  0.72803727  0.64276189
   0.98083237  0.60679130  0.92099616
   0.23828032  0.47050373  0.80577804
   0.38624724  0.18058199  0.99432786
   0.71763017  0.24407391  0.75270769
   0.25752146  0.16581491  0.77166617
   0.05534634  0.34342298  0.33611547
   0.96578190  0.51103230  0.12920320
   0.33942544  0.91401863  0.78268571
   0.91080902  0.82246584  0.40383694
   0.00118879  0.21968509  0.79550734
   0.53696718  0.43977081  0.25446068
   0.58348510  0.91688820  0.23400208
   0.47116444  0.14086460  0.63364794
   0.52713695  0.93863975  0.00785766
   0.36986333  0.02101677  0.15862781
   0.24556844  0.45022919  0.44105864
   0.54152787  0.77537267  0.89275326
   0.38756322  0.63806832  0.78401292
   0.15388540  0.16104969  0.99181954
   0.86961991  0.21353665  0.55658482
   0.09028969  0.24369565  0.57806684
   0.08285743  0.73147826  0.06578301
   0.07660762  0.85681366  0.27246088
   0.10218093  0.93791925  0.77057030
   0.94776752  0.79447205  0.76857948
   0.06532164  0.43055963  0.96623107
   0.77302737  0.66805590  0.50349925
   0.90185486  0.01379820  0.38536978
   0.26221630  0.38239317  0.62446702
 
 position of ions in cartesian coordinates  (Angst):
  11.90230000 13.25520000  2.92016000
   9.01510000 10.91810000  0.23635100
  10.68310000 10.21350000  3.06568000
  13.27630000 14.90380000 16.41800000
   9.14613000 12.59790000  4.66865000
  14.45700000 12.33380000 14.91090000
   3.76599000  0.66995400  0.68489800
   3.57613000 13.82230000  4.83985000
   1.55098000 15.85100000  5.92925000
   3.42719000 11.80960000  0.94530700
   1.67091000 11.18090000 14.59600000
   5.22219000 13.68600000  7.18998000
   5.36876000  7.93587000  9.70855000
   8.07241000 12.86620000  8.69045000
  11.35230000 13.78320000 12.69170000
   5.61807000 10.23980000  7.29173000
  11.35520000  8.43840000 12.30400000
   2.59378000 11.64000000 10.31020000
  15.96420000 14.59750000 14.27800000
  14.99360000  7.52665000 16.21890000
   2.59435000  7.73428000 11.28050000
   8.48662000 14.57450000 14.02140000
   0.22261400  9.71455000 12.15920000
  13.75050000  9.63309000 13.70070000
   5.83844000  7.77179000 14.47480000
   1.43773000  8.31615000 14.28350000
   4.18150000  9.83439000 13.70350000
   6.81989000 11.18100000 15.18640000
   0.90860600  4.99699000 11.39880000
   8.56291000 10.36720000 11.84230000
   4.29687000  4.12944000  0.48015700
   5.71463000  2.69393000  2.20315000
   7.57202000  1.12595000  0.55278300
   6.95132000  5.26923000  0.62350400
  10.00200000  6.31466000  2.99994000
   1.33431000  2.55819000  2.06690000
  12.68800000  1.75182000  7.99766000
  13.04900000  4.96854000 11.22810000
  10.19000000 15.99220000 15.54930000
   9.28133000  4.79470000 11.47950000
  13.81390000  2.87602000 13.24260000
  12.37810000  4.99500000 14.23630000
   7.52544000  3.51864000  5.92941000
   4.05226000  0.18658800 11.89910000
   5.35247000  1.41780000  5.31182000
  15.92740000  2.24579000 10.17870000
   6.65541000 15.66770000  7.98575000
  15.06960000  4.84920000  6.93583000
   6.32868000  6.77431000  6.68454000
   0.19337700  3.55880000  4.26273000
   3.03460000  4.47422000  5.14306000
  15.80400000  6.24811000  3.16652000
   2.14394000  7.40388000  5.10077000
   4.52870000  8.01765000  3.16876000
  12.70490000  9.74280000  4.93912000
   1.46042000  8.64779000  1.25885000
  13.21940000  8.02730000  2.18146000
   1.64800000 11.46800000  4.69908000
  15.23440000 10.75440000  0.67896200
   1.71943000  6.59003000  7.34430000
   7.11484000  0.25701400 12.57490000
   5.90385000 15.03220000 15.18640000
   6.40565000 13.85960000 10.65380000
   1.52221000 13.76830000 11.90170000
   3.46893000 13.54070000 13.94240000
   5.15165000 12.00850000 12.24700000
   0.69119400 13.19490000  7.64219000
  13.88910000 14.80110000  8.30132000
  14.27830000 12.56660000  4.29257000
  14.13620000 11.93220000  8.88794000
  12.57500000 12.42920000  6.69985000
  11.85680000  1.88477000 11.29650000
  15.94640000  5.23772000 14.10260000
   6.17076000  2.70543000 14.16870000
   2.17469000  2.67755000 13.86850000
   4.48072000  5.40150000 12.79640000
   1.69509000 13.81020000  1.05479000
   3.47722000  7.28940000 15.71740000
   9.41652000  6.84177000  6.31138000
   7.85372000  9.01112000  2.13919000
  11.52380000  3.59141000  5.28189000
   8.44832000  9.43896000  4.88252000
   6.84794000 11.52090000  4.09537000
  12.23180000  6.53166000  5.86118000
  13.22690000  0.69753000  4.43312000
   8.01877000 14.28890000  2.22368000
  10.37000000 10.80830000  6.60778000
  11.04530000 15.22600000  5.59322000
   7.70287000  0.44680700  4.16583000
   8.44045000 15.14900000  6.25221000
   6.13371000  3.80596000 11.93460000
  12.94420000  8.99122000  9.44730000
   9.21184000  1.38242000 11.69730000
   3.24053000  2.98382000 10.68320000
   9.34029000  1.66963000  7.84220000
  10.03660000  3.04059000 14.32760000
  11.19420000 14.82790000  9.47085000
  10.11170000 11.16540000  9.93501000
   5.58274000  4.77045000  3.77098000
   3.44735000 15.39720000  8.73511000
  14.91550000  8.99593000  6.34257000
  14.30330000  7.06859000 12.01960000
   8.56459000  5.27641000  9.26455000
   1.58617000  9.72289000  8.51327000
   9.67971000  1.70216000  4.16161000
  12.72930000  0.12116900 14.02390000
  14.50610000 13.45990000  1.83835000
   5.33434000  8.61569000  0.83621200
  13.40580000  4.24982000  3.02350000
  10.76260000  7.65091000 16.27380000
   4.39438000 10.67090000  4.15728000
   8.27256000  6.62252000 13.94890000
  11.03560000  0.70546900  9.43989000
  10.37000000 14.23450000  7.54734000
   9.76566000 13.91160000 10.67440000
  12.65890000 13.99960000 10.45200000
  11.00400000 10.92030000 11.76110000
  11.54540000 11.87810000  4.82565000
   8.20883000 15.47640000 10.41330000
   8.04319000 11.22620000  6.93328000
   6.80821000  6.38188000  2.94977000
   5.40360000  4.56571000  5.79227000
   1.89173000  2.31075000  4.25957000
   3.81935000  5.55225000  2.97938000
   3.98157000 15.68990000  6.82241000
   4.44754000  0.77087200  9.35674000
   4.56095000 13.58280000  9.29328000
   1.30792000 15.27060000  8.64566000
  14.47580000  7.14320000  7.13154000
  10.55350000  8.52573000  5.01275000
   1.15963000  9.45791000  6.42405000
  10.80240000  5.00873000  7.24330000
  13.99340000  6.50269000 14.08060000
   0.28830400  7.01498000 12.61830000
  14.00980000  9.01222000 11.44340000
  10.82870000  7.94614000  8.94609000
   9.09611000  9.33431000  9.67367000
   7.78006000  7.00457000  8.57340000
   6.86336000  3.82361000  9.44252000
   8.99033000  4.30599000  7.96791000
   0.47571500 11.36130000  9.36059000
   5.59116000 10.44010000  9.76601000
   0.98743300  7.89861000  9.41925000
   2.73722000 11.53590000 12.59400000
   7.41265000  1.18183000  6.40831000
  11.00100000  1.66349000  2.57060000
  10.82680000  1.37745000  5.82736000
   9.41464000  3.83259000  4.10661000
  11.99190000  1.62208000 15.35790000
  10.95460000 16.09960000 13.01980000
  12.73650000 14.28110000 14.72120000
  14.05740000  0.57618300 12.61740000
  13.26240000 15.23530000  2.57360000
  14.76970000  9.24035000  3.96742000
  15.63120000 14.49390000  0.47574700
  13.47190000 12.48460000  1.02933000
   5.95507000  9.37420000  4.70643000
   7.09319000  9.18928000 16.18250000
   3.99324000  9.76425000 16.16080000
   5.31614000  6.64299000  0.13476300
  13.64060000  3.15336000  4.59792000
  11.78420000  3.58938000  1.65314000
  15.20370000  4.22700000  2.04070000
  13.24310000  5.83105000  3.65176000
  10.31450000  8.11455000  1.61613000
   9.65159000  6.08314000 15.48350000
  12.16720000  6.75932000 16.25320000
  11.59080000  8.98876000 15.16090000
   2.69371000  9.53128000  3.57516000
   4.78026000 12.29030000  2.95865000
   7.19120000 12.63190000  5.90206000
   3.99541000 11.26600000  6.12527000
   8.19298000  4.61785000 13.25780000
  11.27270000  6.82750000 10.63220000
   8.01804000  1.51911000 14.20000000
   8.98922000  7.66386000 12.39090000
   8.54258000 11.28650000  2.84276000
   3.69997000 14.39700000 16.39440000
   6.90537000 11.72140000 10.55760000
  15.71890000  9.76934000 15.12770000
   3.81870000  7.57511000 13.23520000
   6.19003000  2.90737000 16.33220000
  11.50080000  3.92959000 12.36350000
   4.12706000  2.66962000 12.67490000
   0.88698500  5.52911000  5.52082000
  15.47770000  8.22762000  2.12221000
   5.43966000 14.71570000 12.85590000
  14.59670000 13.24170000  6.63317000
   0.01905170  3.53693000 13.06650000
   8.60548000  7.08031000  4.17961000
   9.35098000 14.76190000  3.84357000
   7.55092000  2.26792000 10.40790000
   8.44794000 15.11210000  0.12906500
   5.92746000  0.33837000  2.60552000
   3.93550000  7.24869000  7.24455000
   8.67857000 12.48350000 14.66380000
   6.21112000 10.27290000 12.87770000
   2.46618000  2.59290000 16.29100000
  13.93660000  3.43794000  9.14211000
   1.44699000  3.92350000  9.49496000
   1.32788000 11.77680000  1.08051000
   1.22772000 13.79470000  4.47527000
   1.63756000 15.10050000 12.65690000
  15.18900000 12.79100000 12.62420000
   1.04685000  6.93201000 15.87070000
  12.38860000 10.75570000  8.27016000
  14.45320000  0.22215100  6.32984000
   4.20230000  6.15653000 10.25710000
 


--------------------------------------------------------------------------------------------------------


 k-point  1 :   0.0000 0.0000 0.0000  plane waves:  107615

 maximum and minimum number of plane-waves per node :     13456    13445

 maximum number of plane-waves:    107615
 maximum index in each direction: 
   IXMAX=   29   IYMAX=   29   IZMAX=   29
   IXMIN=  -29   IYMIN=  -29   IZMIN=  -29


 parallel 3D FFT for wavefunctions:
    minimum data exchange during FFTs selected (reduces bandwidth)
 parallel 3D FFT for charge:
    minimum data exchange during FFTs selected (reduces bandwidth)


 total amount of memory used by VASP MPI-rank0   111673. kBytes
=======================================================================

   base      :      30000. kBytes
   nonl-proj :      48226. kBytes
   fftplans  :       6264. kBytes
   grid      :      10964. kBytes
   one-center:         79. kBytes
   wavefun   :      16140. kBytes
 
     INWAV:  cpu time    0.0000: real time    0.0002
 Broyden mixing: mesh for mixing (old mesh)
   NGX = 59   NGY = 59   NGZ = 59
  (NGX  =180   NGY  =180   NGZ  =180)
  gives a total of 205379 points

 initial charge density was supplied:
 charge density of overlapping atoms calculated
 number of electron     960.0000000 magnetization 
 keeping initial charge density in first step


--------------------------------------------------------------------------------------------------------


 Maximum index for augmentation-charges          361 (set IRDMAX)


--------------------------------------------------------------------------------------------------------


 First call to EWALD:  gamma=   0.110
 Maximum number of real-space cells 3x 3x 3
 Maximum number of reciprocal cells 3x 3x 3

    FEWALD:  cpu time    0.0088: real time    0.0089


--------------------------------------- Iteration      1(   1)  ---------------------------------------


    POTLOK:  cpu time    0.0847: real time    0.0858
    SETDIJ:  cpu time    0.0076: real time    0.0077
    EDDIAG:  cpu time    0.9635: real time    0.9665
  RMM-DIIS:  cpu time    5.5022: real time    5.5061
    ORTHCH:  cpu time    0.2644: real time    0.2644
       DOS:  cpu time    0.0009: real time    0.0009
    --------------------------------------------
      LOOP:  cpu time    6.8233: real time    6.8313

 eigenvalue-minimisations  :   592
 total energy-change (2. order) :-0.3777214E+04  (-0.4701239E+05)
 number of electron     960.0000000 magnetization 
 augmentation part      960.0000000 magnetization 

 Free energy of the ion-electron system (eV)
  ---------------------------------------------------
  alpha Z        PSCENC =       804.77846877
  Ewald energy   TEWEN  =    -29469.44448984
  -Hartree energ DENC   =    -12724.89551062
  -exchange      EXHF   =         0.00000000
  -V(xc)+E(xc)   XCENC  =      2538.16185546
  PAW double counting   =     32496.41603574   -33591.34861692
  entropy T*S    EENTRO =        -0.02494583
  eigenvalues    EBANDS =    -14814.84229442
  atomic energy  EATOM  =     50983.98519967
  Solvation  Ediel_sol  =         0.00000000
  ---------------------------------------------------
  free energy    TOTEN  =     -3777.21429798 eV

  energy without entropy =    -3777.18935216  energy(sigma->0) =    -3777.20182507


--------------------------------------------------------------------------------------------------------




--------------------------------------- Iteration      1(   2)  ---------------------------------------


    EDDIAG:  cpu time    0.9538: real time    0.9559
  RMM-DIIS:  cpu time    5.5304: real time    5.5396
    ORTHCH:  cpu time    0.2633: real time    0.2637
       DOS:  cpu time    0.0007: real time    0.0007
    --------------------------------------------
      LOOP:  cpu time    6.7482: real time    6.7599

 eigenvalue-minimisations  :   592
 total energy-change (2. order) : 0.6195950E+04  (-0.7362102E+04)
 number of electron     960.0000000 magnetization 
 augmentation part      960.0000000 magnetization 

 Free energy of the ion-electron system (eV)
  ---------------------------------------------------
  alpha Z        PSCENC =       804.77846877
  Ewald energy   TEWEN  =    -29469.44448984
  -Hartree energ DENC   =    -12724.89551062
  -exchange      EXHF   =         0.00000000
  -V(xc)+E(xc)   XCENC  =      2538.16185546
  PAW double counting   =     32496.41603574   -33591.34861692
  entropy T*S    EENTRO =        -0.06677815
  eigenvalues    EBANDS =     -8618.85076851
  atomic energy  EATOM  =     50983.98519967
  Solvation  Ediel_sol  =         0.00000000
  ---------------------------------------------------
  free energy    TOTEN  =      2418.73539561 eV

  energy without entropy =     2418.80217376  energy(sigma->0) =     2418.76878468


--------------------------------------------------------------------------------------------------------




--------------------------------------- Iteration      1(   3)  ---------------------------------------


    EDDIAG:  cpu time    0.9515: real time    0.9521
  RMM-DIIS:  cpu time    5.5084: real time    5.5117
    ORTHCH:  cpu time    0.2637: real time    0.2637
       DOS:  cpu time    0.0007: real time    0.0007
    --------------------------------------------
      LOOP:  cpu time    6.7243: real time    6.7283

 eigenvalue-minimisations  :   592
 total energy-change (2. order) :-0.1603877E+04  (-0.2348559E+04)
 number of electron     960.0000000 magnetization 
 augmentation part      960.0000000 magnetization 

 Free energy of the ion-electron system (eV)
  ---------------------------------------------------
  alpha Z        PSCENC =       804.77846877
  Ewald energy   TEWEN  =    -29469.44448984
  -Hartree energ DENC   =    -12724.89551062
  -exchange      EXHF   =         0.00000000
  -V(xc)+E(xc)   XCENC  =      2538.16185546
  PAW double counting   =     32496.41603574   -33591.34861692
  entropy T*S    EENTRO =        -0.08279292
  eigenvalues    EBANDS =    -10222.71180280
  atomic energy  EATOM  =     50983.98519967
  Solvation  Ediel_sol  =         0.00000000
  ---------------------------------------------------
  free energy    TOTEN  =       814.85834655 eV

  energy without entropy =      814.94113947  energy(sigma->0) =      814.89974301


--------------------------------------------------------------------------------------------------------




--------------------------------------- Iteration      1(   4)  ---------------------------------------


    EDDIAG:  cpu time    0.9576: real time    0.9592
  RMM-DIIS:  cpu time    5.5029: real time    5.5097
    ORTHCH:  cpu time    0.2644: real time    0.2656
       DOS:  cpu time    0.0006: real time    0.0023
    --------------------------------------------
      LOOP:  cpu time    6.7254: real time    6.7367

 eigenvalue-minimisations  :   592
 total energy-change (2. order) :-0.8291789E+03  (-0.8359767E+03)
 number of electron     960.0000000 magnetization 
 augmentation part      960.0000000 magnetization 

 Free energy of the ion-electron system (eV)
  ---------------------------------------------------
  alpha Z        PSCENC =       804.77846877
  Ewald energy   TEWEN  =    -29469.44448984
  -Hartree energ DENC   =    -12724.89551062
  -exchange      EXHF   =         0.00000000
  -V(xc)+E(xc)   XCENC  =      2538.16185546
  PAW double counting   =     32496.41603574   -33591.34861692
  entropy T*S    EENTRO =        -0.03211662
  eigenvalues    EBANDS =    -11051.94139633
  atomic energy  EATOM  =     50983.98519967
  Solvation  Ediel_sol  =         0.00000000
  ---------------------------------------------------
  free energy    TOTEN  =       -14.32057069 eV

  energy without entropy =      -14.28845407  energy(sigma->0) =      -14.30451238


--------------------------------------------------------------------------------------------------------




--------------------------------------- Iteration      1(   5)  ---------------------------------------


    EDDIAG:  cpu time    0.9604: real time    0.9647
  RMM-DIIS:  cpu time    5.5047: real time    5.5095
    ORTHCH:  cpu time    0.2652: real time    0.2652
       DOS:  cpu time    0.0006: real time    0.0006
    --------------------------------------------
      LOOP:  cpu time    6.7310: real time    6.7400

 eigenvalue-minimisations  :   592
 total energy-change (2. order) :-0.3638735E+03  (-0.3323899E+03)
 number of electron     960.0000000 magnetization 
 augmentation part      960.0000000 magnetization 

 Free energy of the ion-electron system (eV)
  ---------------------------------------------------
  alpha Z        PSCENC =       804.77846877
  Ewald energy   TEWEN  =    -29469.44448984
  -Hartree energ DENC   =    -12724.89551062
  -exchange      EXHF   =         0.00000000
  -V(xc)+E(xc)   XCENC  =      2538.16185546
  PAW double counting   =     32496.41603574   -33591.34861692
  entropy T*S    EENTRO =        -0.00240748
  eigenvalues    EBANDS =    -11415.84457706
  atomic energy  EATOM  =     50983.98519967
  Solvation  Ediel_sol  =         0.00000000
  ---------------------------------------------------
  free energy    TOTEN  =      -378.19404228 eV

  energy without entropy =     -378.19163480  energy(sigma->0) =     -378.19283854


--------------------------------------------------------------------------------------------------------




--------------------------------------- Iteration      1(   6)  ---------------------------------------


    EDDIAG:  cpu time    0.9456: real time    0.9499
  RMM-DIIS:  cpu time    5.5166: real time    5.5208
    ORTHCH:  cpu time    0.2651: real time    0.2651
       DOS:  cpu time    0.0004: real time    0.0004
    --------------------------------------------
      LOOP:  cpu time    6.7276: real time    6.7362

 eigenvalue-minimisations  :   592
 total energy-change (2. order) :-0.1542263E+03  (-0.1406609E+03)
 number of electron     960.0000000 magnetization 
 augmentation part      960.0000000 magnetization 

 Free energy of the ion-electron system (eV)
  ---------------------------------------------------
  alpha Z        PSCENC =       804.77846877
  Ewald energy   TEWEN  =    -29469.44448984
  -Hartree energ DENC   =    -12724.89551062
  -exchange      EXHF   =         0.00000000
  -V(xc)+E(xc)   XCENC  =      2538.16185546
  PAW double counting   =     32496.41603574   -33591.34861692
  entropy T*S    EENTRO =        -0.00000000
  eigenvalues    EBANDS =    -11570.07329295
  atomic energy  EATOM  =     50983.98519967
  Solvation  Ediel_sol  =         0.00000000
  ---------------------------------------------------
  free energy    TOTEN  =      -532.42035069 eV

  energy without entropy =     -532.42035069  energy(sigma->0) =     -532.42035069


--------------------------------------------------------------------------------------------------------




--------------------------------------- Iteration      1(   7)  ---------------------------------------


    EDDIAG:  cpu time    0.9699: real time    0.9718
  RMM-DIIS:  cpu time    5.5107: real time    5.5156
    ORTHCH:  cpu time    0.2650: real time    0.2651
       DOS:  cpu time    0.0003: real time    0.0003
    --------------------------------------------
      LOOP:  cpu time    6.7459: real time    6.7527

 eigenvalue-minimisations  :   592
 total energy-change (2. order) :-0.7345313E+02  (-0.7024031E+02)
 number of electron     960.0000000 magnetization 
 augmentation part      960.0000000 magnetization 

 Free energy of the ion-electron system (eV)
  ---------------------------------------------------
  alpha Z        PSCENC =       804.77846877
  Ewald energy   TEWEN  =    -29469.44448984
  -Hartree energ DENC   =    -12724.89551062
  -exchange      EXHF   =         0.00000000
  -V(xc)+E(xc)   XCENC  =      2538.16185546
  PAW double counting   =     32496.41603574   -33591.34861692
  entropy T*S    EENTRO =        -0.00000000
  eigenvalues    EBANDS =    -11643.52641954
  atomic energy  EATOM  =     50983.98519967
  Solvation  Ediel_sol  =         0.00000000
  ---------------------------------------------------
  free energy    TOTEN  =      -605.87347728 eV

  energy without entropy =     -605.87347728  energy(sigma->0) =     -605.87347728


--------------------------------------------------------------------------------------------------------




--------------------------------------- Iteration      1(   8)  ---------------------------------------


    EDDIAG:  cpu time    0.9609: real time    0.9619
  RMM-DIIS:  cpu time    5.5848: real time    5.5915
    ORTHCH:  cpu time    0.2616: real time    0.2616
       DOS:  cpu time    0.0003: real time    0.0003
    --------------------------------------------
      LOOP:  cpu time    6.8077: real time    6.8153

 eigenvalue-minimisations  :   592
 total energy-change (2. order) :-0.4275201E+02  (-0.4029288E+02)
 number of electron     960.0000000 magnetization 
 augmentation part      960.0000000 magnetization 

 Free energy of the ion-electron system (eV)
  ---------------------------------------------------
  alpha Z        PSCENC =       804.77846877
  Ewald energy   TEWEN  =    -29469.44448984
  -Hartree energ DENC   =    -12724.89551062
  -exchange      EXHF   =         0.00000000
  -V(xc)+E(xc)   XCENC  =      2538.16185546
  PAW double counting   =     32496.41603574   -33591.34861692
  entropy T*S    EENTRO =        -0.00000000
  eigenvalues    EBANDS =    -11686.27842946
  atomic energy  EATOM  =     50983.98519967
  Solvation  Ediel_sol  =         0.00000000
  ---------------------------------------------------
  free energy    TOTEN  =      -648.62548720 eV

  energy without entropy =     -648.62548720  energy(sigma->0) =     -648.62548720


--------------------------------------------------------------------------------------------------------




--------------------------------------- Iteration      1(   9)  ---------------------------------------


    EDDIAG:  cpu time    0.9696: real time    0.9709
  RMM-DIIS:  cpu time   19.5670: real time   19.5789
    ORTHCH:  cpu time    0.2616: real time    0.2626
       DOS:  cpu time    0.0004: real time    0.0004
    --------------------------------------------
      LOOP:  cpu time   20.7986: real time   20.8128

 eigenvalue-minimisations  :  2144
 total energy-change (2. order) :-0.1114353E+03  (-0.1106335E+03)
 number of electron     960.0000000 magnetization 
 augmentation part      960.0000000 magnetization 

 Free energy of the ion-electron system (eV)
  ---------------------------------------------------
  alpha Z        PSCENC =       804.77846877
  Ewald energy   TEWEN  =    -29469.44448984
  -Hartree energ DENC   =    -12724.89551062
  -exchange      EXHF   =         0.00000000
  -V(xc)+E(xc)   XCENC  =      2538.16185546
  PAW double counting   =     32496.41603574   -33591.34861692
  entropy T*S    EENTRO =        -0.00000000
  eigenvalues    EBANDS =    -11797.71372942
  atomic energy  EATOM  =     50983.98519967
  Solvation  Ediel_sol  =         0.00000000
  ---------------------------------------------------
  free energy    TOTEN  =      -760.06078716 eV

  energy without entropy =     -760.06078716  energy(sigma->0) =     -760.06078716


--------------------------------------------------------------------------------------------------------




--------------------------------------- Iteration      1(  10)  ---------------------------------------


    EDDIAG:  cpu time    0.9501: real time    0.9527
  RMM-DIIS:  cpu time   19.6243: real time   19.6393
    ORTHCH:  cpu time    0.2624: real time    0.2626
       DOS:  cpu time    0.0004: real time    0.0004
    --------------------------------------------
      LOOP:  cpu time   20.8372: real time   20.8549

 eigenvalue-minimisations  :  2134
 total energy-change (2. order) :-0.5601621E+02  (-0.5528506E+02)
 number of electron     960.0000000 magnetization 
 augmentation part      960.0000000 magnetization 

 Free energy of the ion-electron system (eV)
  ---------------------------------------------------
  alpha Z        PSCENC =       804.77846877
  Ewald energy   TEWEN  =    -29469.44448984
  -Hartree energ DENC   =    -12724.89551062
  -exchange      EXHF   =         0.00000000
  -V(xc)+E(xc)   XCENC  =      2538.16185546
  PAW double counting   =     32496.41603574   -33591.34861692
  entropy T*S    EENTRO =        -0.00000000
  eigenvalues    EBANDS =    -11853.72993617
  atomic energy  EATOM  =     50983.98519967
  Solvation  Ediel_sol  =         0.00000000
  ---------------------------------------------------
  free energy    TOTEN  =      -816.07699391 eV

  energy without entropy =     -816.07699391  energy(sigma->0) =     -816.07699391


--------------------------------------------------------------------------------------------------------




--------------------------------------- Iteration      1(  11)  ---------------------------------------


    EDDIAG:  cpu time    0.9568: real time    0.9579
  RMM-DIIS:  cpu time   18.9230: real time   18.9369
    ORTHCH:  cpu time    0.2584: real time    0.2585
       DOS:  cpu time    0.0004: real time    0.0004
    --------------------------------------------
      LOOP:  cpu time   20.1387: real time   20.1538

 eigenvalue-minimisations  :  2069
 total energy-change (2. order) :-0.1300068E+02  (-0.1327650E+02)
 number of electron     960.0000000 magnetization 
 augmentation part      960.0000000 magnetization 

 Free energy of the ion-electron system (eV)
  ---------------------------------------------------
  alpha Z        PSCENC =       804.77846877
  Ewald energy   TEWEN  =    -29469.44448984
  -Hartree energ DENC   =    -12724.89551062
  -exchange      EXHF   =         0.00000000
  -V(xc)+E(xc)   XCENC  =      2538.16185546
  PAW double counting   =     32496.41603574   -33591.34861692
  entropy T*S    EENTRO =        -0.00000000
  eigenvalues    EBANDS =    -11866.73061673
  atomic energy  EATOM  =     50983.98519967
  Solvation  Ediel_sol  =         0.00000000
  ---------------------------------------------------
  free energy    TOTEN  =      -829.07767446 eV

  energy without entropy =     -829.07767446  energy(sigma->0) =     -829.07767446


--------------------------------------------------------------------------------------------------------




--------------------------------------- Iteration      1(  12)  ---------------------------------------


    EDDIAG:  cpu time    0.9518: real time    0.9528
  RMM-DIIS:  cpu time   18.8305: real time   18.8435
    ORTHCH:  cpu time    0.2636: real time    0.2638
       DOS:  cpu time    0.0005: real time    0.0005
    CHARGE:  cpu time    0.1944: real time    0.1949
    MIXING:  cpu time    0.0022: real time    0.0027
    --------------------------------------------
      LOOP:  cpu time   20.2431: real time   20.2581

 eigenvalue-minimisations  :  2044
 total energy-change (2. order) :-0.7076175E+01  (-0.7084669E+01)
 number of electron     959.9999875 magnetization 
 augmentation part        6.4163326 magnetization 

 Broyden mixing:
  rms(total) = 0.77812E+01    rms(broyden)= 0.77786E+01
  rms(prec ) = 0.80859E+01
  weight for this iteration     100.00

 Free energy of the ion-electron system (eV)
  ---------------------------------------------------
  alpha Z        PSCENC =       804.77846877
  Ewald energy   TEWEN  =    -29469.44448984
  -Hartree energ DENC   =    -12724.89551062
  -exchange      EXHF   =         0.00000000
  -V(xc)+E(xc)   XCENC  =      2538.16185546
  PAW double counting   =     32496.41603574   -33591.34861692
  entropy T*S    EENTRO =        -0.00000000
  eigenvalues    EBANDS =    -11873.80679165
  atomic energy  EATOM  =     50983.98519967
  Solvation  Ediel_sol  =         0.00000000
  ---------------------------------------------------
  free energy    TOTEN  =      -836.15384939 eV

  energy without entropy =     -836.15384939  energy(sigma->0) =     -836.15384939


--------------------------------------------------------------------------------------------------------




--------------------------------------- Iteration      1(  13)  ---------------------------------------


    POTLOK:  cpu time    0.0810: real time    0.0811
    SETDIJ:  cpu time    0.0069: real time    0.0069
    EDDIAG:  cpu time    0.9649: real time    0.9654
  RMM-DIIS:  cpu time   14.5671: real time   14.5829
    ORTHCH:  cpu time    0.2625: real time    0.2634
       DOS:  cpu time    0.0008: real time    0.0008
    CHARGE:  cpu time    0.1998: real time    0.2001
    MIXING:  cpu time    0.0022: real time    0.0023
    --------------------------------------------
      LOOP:  cpu time   16.0851: real time   16.1029

 eigenvalue-minimisations  :  1589
 total energy-change (2. order) : 0.3975490E+02  (-0.9780865E+01)
 number of electron     959.9999873 magnetization 
 augmentation part        7.0957256 magnetization 

 Broyden mixing:
  rms(total) = 0.50826E+01    rms(broyden)= 0.50825E+01
  rms(prec ) = 0.51979E+01
  weight for this iteration     100.00

 eigenvalues of (default mixing * dielectric matrix)
  average eigenvalue GAMMA=   2.2191
  2.2191

 Free energy of the ion-electron system (eV)
  ---------------------------------------------------
  alpha Z        PSCENC =       804.77846877
  Ewald energy   TEWEN  =    -29469.44448984
  -Hartree energ DENC   =    -13047.01816710
  -exchange      EXHF   =         0.00000000
  -V(xc)+E(xc)   XCENC  =      2561.42041441
  PAW double counting   =     46487.13873522   -47605.12090187
  entropy T*S    EENTRO =        -0.04316129
  eigenvalues    EBANDS =    -11512.09504783
  atomic energy  EATOM  =     50983.98519967
  Solvation  Ediel_sol  =         0.00000000
  ---------------------------------------------------
  free energy    TOTEN  =      -796.39894987 eV

  energy without entropy =     -796.35578858  energy(sigma->0) =     -796.37736923


--------------------------------------------------------------------------------------------------------




--------------------------------------- Iteration      1(  14)  ---------------------------------------


    POTLOK:  cpu time    0.0809: real time    0.0812
    SETDIJ:  cpu time    0.0070: real time    0.0070
    EDDIAG:  cpu time    0.9704: real time    0.9727
  RMM-DIIS:  cpu time   15.1452: real time   15.1535
    ORTHCH:  cpu time    0.2599: real time    0.2604
       DOS:  cpu time    0.0007: real time    0.0007
    CHARGE:  cpu time    0.2018: real time    0.2019
    MIXING:  cpu time    0.0021: real time    0.0021
    --------------------------------------------
      LOOP:  cpu time   16.6679: real time   16.6795

 eigenvalue-minimisations  :  1666
 total energy-change (2. order) : 0.2532761E+01  (-0.8114410E+01)
 number of electron     959.9999873 magnetization 
 augmentation part        6.7278409 magnetization 

 Broyden mixing:
  rms(total) = 0.16165E+01    rms(broyden)= 0.16163E+01
  rms(prec ) = 0.17679E+01
  weight for this iteration     100.00

 eigenvalues of (default mixing * dielectric matrix)
  average eigenvalue GAMMA=   1.8211
  1.2164  2.4259

 Free energy of the ion-electron system (eV)
  ---------------------------------------------------
  alpha Z        PSCENC =       804.77846877
  Ewald energy   TEWEN  =    -29469.44448984
  -Hartree energ DENC   =    -13341.19974623
  -exchange      EXHF   =         0.00000000
  -V(xc)+E(xc)   XCENC  =      2583.99067555
  PAW double counting   =     74321.08470729   -75465.00221523
  entropy T*S    EENTRO =        -0.01859395
  eigenvalues    EBANDS =    -11212.04019455
  atomic energy  EATOM  =     50983.98519967
  Solvation  Ediel_sol  =         0.00000000
  ---------------------------------------------------
  free energy    TOTEN  =      -793.86618852 eV

  energy without entropy =     -793.84759457  energy(sigma->0) =     -793.85689155


--------------------------------------------------------------------------------------------------------




--------------------------------------- Iteration      1(  15)  ---------------------------------------


    POTLOK:  cpu time    0.0811: real time    0.0812
    SETDIJ:  cpu time    0.0069: real time    0.0069
    EDDIAG:  cpu time    0.9873: real time    0.9933
  RMM-DIIS:  cpu time   17.4635: real time   17.4821
    ORTHCH:  cpu time    0.2642: real time    0.2642
       DOS:  cpu time    0.0006: real time    0.0006
    CHARGE:  cpu time    0.1999: real time    0.1999
    MIXING:  cpu time    0.0023: real time    0.0023
    --------------------------------------------
      LOOP:  cpu time   19.0057: real time   19.0304

 eigenvalue-minimisations  :  1886
 total energy-change (2. order) :-0.3448074E+00  (-0.2275315E+01)
 number of electron     959.9999876 magnetization 
 augmentation part        5.5164329 magnetization 

 Broyden mixing:
  rms(total) = 0.68249E+00    rms(broyden)= 0.68208E+00
  rms(prec ) = 0.78939E+00
  weight for this iteration     100.00

 eigenvalues of (default mixing * dielectric matrix)
  average eigenvalue GAMMA=   1.4517
  2.4179  1.2312  0.7059

 Free energy of the ion-electron system (eV)
  ---------------------------------------------------
  alpha Z        PSCENC =       804.77846877
  Ewald energy   TEWEN  =    -29469.44448984
  -Hartree energ DENC   =    -13346.02752550
  -exchange      EXHF   =         0.00000000
[...]
      9.67971      1.70216      4.16161        -0.719558      2.107771     -0.486754
     12.72930      0.12117     14.02390        -1.886071      1.299879     -0.657335
     14.50610     13.45990      1.83835        12.208031     12.109063     11.682386
      5.33434      8.61569      0.83621         0.933818      0.541944     -0.077781
     13.40580      4.24982      3.02350         1.578539     -9.836230     -6.035115
     10.76260      7.65091     16.27380       -10.190625      5.849732     -2.059845
      4.39438     10.67090      4.15728        -0.311856     -0.453481      1.637632
      8.27256      6.62252     13.94890        -1.662698     -0.132085     -0.470418
     11.03560      0.70547      9.43989         0.267295      1.462112     -0.075088
     10.37000     14.23450      7.54734         0.824140     -0.490987      1.025041
      9.76566     13.91160     10.67440        -2.027405      1.311066      0.422950
     12.65890     13.99960     10.45200         2.066268     -0.377880     -0.616998
     11.00400     10.92030     11.76110         0.028754      0.386580      0.306006
     11.54540     11.87810      4.82565         0.523548     -0.318555     -0.850852
      8.20883     15.47640     10.41330         0.298043     -0.783467     -0.106762
      8.04319     11.22620      6.93328         1.185993     -2.796898      1.838716
      6.80821      6.38188      2.94977         0.547040     -0.101375      0.895081
      5.40360      4.56571      5.79227         0.413449      0.248923      0.616538
      1.89173      2.31075      4.25957         1.424326     -1.123940      0.069862
      3.81935      5.55225      2.97938        -0.525521      0.135581      0.232287
      3.98157     15.68990      6.82241         0.339437     -0.944541     -3.255008
      4.44754      0.77087      9.35674         1.034284      2.866271      2.896204
      4.56095     13.58280      9.29328        -1.513017      0.508408      0.000719
      1.30792     15.27060      8.64566         1.309724      0.211609      0.484686
     14.47580      7.14320      7.13154        -0.402823      1.334487     -0.264388
     10.55350      8.52573      5.01275         1.160224     -0.156208      0.582362
      1.15963      9.45791      6.42405        -1.660326     -0.181863     -0.156551
     10.80240      5.00873      7.24330         1.215728      0.256533     -0.169029
     13.99340      6.50269     14.08060        -1.227915      0.854838     -0.427829
      0.28830      7.01498     12.61830         1.983889      0.831979     -1.436580
     14.00980      9.01222     11.44340        -0.210391      1.065144      0.787158
     10.82870      7.94614      8.94609         0.341569     -0.239744      1.270361
      9.09611      9.33431      9.67367         0.675421      0.378917     -0.993983
      7.78006      7.00457      8.57340        -1.126191      0.733254     -0.589698
      6.86336      3.82361      9.44252        -1.129932      1.468472     -0.709154
      8.99033      4.30599      7.96791         4.170693    -10.555775    -13.880970
      0.47571     11.36130      9.36059        -0.143889     -0.296154     -0.160529
      5.59116     10.44010      9.76601        -1.139450     -0.812632     -0.922413
      0.98743      7.89861      9.41925         0.089286      1.106249     -0.310363
      2.73722     11.53590     12.59400         0.049548      0.209192      0.557321
      7.41265      1.18183      6.40831        -0.374759     -0.639699      0.158511
     11.00100      1.66349      2.57060         1.293798     -0.034264     -1.876859
     10.82680      1.37745      5.82736         1.014831     -0.214633      1.298876
      9.41464      3.83259      4.10661        -0.806892     -0.136997      0.535045
     11.99190      1.62208     15.35790         1.693313     -0.834641      0.421050
     10.95460     16.09960     13.01980        -1.526878     -0.692147     -0.812416
     12.73650     14.28110     14.72120        -0.884587     -1.366406     -2.677953
     14.05740      0.57618     12.61740         0.821995      0.034788      0.269906
     13.26240     15.23530      2.57360        -0.142234     -1.067404     -0.430090
     14.76970      9.24035      3.96742         0.220130      0.061162      0.409841
     15.63120     14.49390      0.47575         0.843147      1.164314     -1.612044
     13.47190     12.48460      1.02933       -13.415758    -12.931309    -10.314085
      5.95507      9.37420      4.70643        -0.294420     -0.188822     -0.941677
      7.09319      9.18928     16.18250         0.781371     -0.210255      0.748480
      3.99324      9.76425     16.16080        -1.137492      0.065645     -0.071442
      5.31614      6.64299      0.13476        -0.298414     -0.384414     -0.607967
     13.64060      3.15336      4.59792         0.417251     -2.608980      2.062734
     11.78420      3.58938      1.65314        -0.017670     -0.521219      1.343045
     15.20370      4.22700      2.04070         0.524391     -0.297772     -1.056465
     13.24310      5.83105      3.65176        -2.350345     13.025081      4.215000
     10.31450      8.11455      1.61613        -1.709405      2.197296      3.654581
      9.65159      6.08314     15.48350        -1.015994     -0.867447     -0.273382
     12.16720      6.75932     16.25320        14.970870    -11.389140      2.118321
     11.59080      8.98876     15.16090        -0.902787      4.598157     -2.570902
      2.69371      9.53128      3.57516         0.585594      0.200699     -0.381698
      4.78026     12.29030      2.95865        -0.234933     -0.394003      0.209242
      7.19120     12.63190      5.90206        -1.362153      3.860877     -0.132750
      3.99541     11.26600      6.12527        -1.482625      1.266333     -0.753368
      8.19298      4.61785     13.25780        -1.595239     -0.234934      1.469323
     11.27270      6.82750     10.63220        -0.088459     -0.165001     -1.164339
      8.01804      1.51911     14.20000         1.298130     -1.439388     -0.604729
      8.98922      7.66386     12.39090         0.246651      0.763922     -0.138818
      8.54258     11.28650      2.84276         0.783631     -0.721571     -1.421104
      3.69997     14.39700     16.39440         0.325615     -0.252021     -0.258657
      6.90537     11.72140     10.55760         1.629962      0.737346     -0.854970
     15.71890      9.76934     15.12770        -0.366861      0.913262     -0.811914
      3.81870      7.57511     13.23520        -0.437051      0.033878      1.082486
      6.19003      2.90737     16.33220        -0.508355      0.899543      2.067909
     11.50080      3.92959     12.36350        -0.048209     -0.807107      0.495004
      4.12706      2.66962     12.67490         0.939759      0.677055      0.316923
      0.88699      5.52911      5.52082        -0.328505      0.101984     -0.460502
     15.47770      8.22762      2.12221        -0.110225      0.609224     -0.091425
      5.43966     14.71570     12.85590         0.531165     -0.838153      0.294823
     14.59670     13.24170      6.63317         0.261660     -0.720816      0.892215
      0.01905      3.53693     13.06650         0.365034     -2.045577     -1.455832
      8.60548      7.08031      4.17961        -2.750222      1.222828      0.881239
      9.35098     14.76190      3.84357         0.416979      0.521321      1.079113
      7.55092      2.26792     10.40790         0.410509     -1.332500      0.600714
      8.44794     15.11210      0.12906        -0.479990     -0.233121      0.202448
      5.92746      0.33837      2.60552         0.044306      0.286538      0.295559
      3.93550      7.24869      7.24455         0.328015      0.538399     -0.530472
      8.67857     12.48350     14.66380         0.060298     -0.811994      0.183075
      6.21112     10.27290     12.87770         0.493299     -0.886246      1.949528
      2.46618      2.59290     16.29100         0.019393     -0.050754      0.494145
     13.93660      3.43794      9.14211         0.035837     -0.314899     -0.043764
      1.44699      3.92350      9.49496         0.055123     -0.431038     -0.057516
      1.32788     11.77680      1.08051        -0.720432     -1.485722      0.147838
      1.22772     13.79470      4.47527         0.731542     -0.076464      0.151038
      1.63756     15.10050     12.65690         1.394526     12.235949      6.909789
     15.18900     12.79100     12.62420         0.085322     -0.070647      0.582393
      1.04685      6.93201     15.87070         1.088480     -1.039163      1.206125
     12.38860     10.75570      8.27016        -0.249144      0.136969     -0.394849
     14.45320      0.22215      6.32984        -0.479585      0.838097      0.875100
      4.20230      6.15653     10.25710        -0.009784     -0.637405      0.692978
 -----------------------------------------------------------------------------------
    total drift:                               -0.024618     -0.003950     -0.004679


--------------------------------------------------------------------------------------------------------



  FREE ENERGIE OF THE ION-ELECTRON SYSTEM (eV)
  ---------------------------------------------------
  free  energy   TOTEN  =      -794.03412662 eV

  energy  without entropy=     -794.01974457  energy(sigma->0) =     -794.02693559
 


--------------------------------------------------------------------------------------------------------


    POTLOK:  cpu time    0.0939: real time    0.0939


--------------------------------------------------------------------------------------------------------




--------------------------------------------------------------------------------------------------------


     LOOP+:  cpu time  996.8682: real time  997.8074
    4ORBIT:  cpu time    0.0000: real time    0.0000
 


 total charge     
 
# of ion       s       p       d       tot
------------------------------------------
    1        2.016   0.047   0.000   2.064
    2        2.005   0.029   0.000   2.034
    3        2.015   0.048   0.000   2.063
    4        2.042   0.096   0.000   2.137
    5        2.026   0.069   0.000   2.095
    6        2.009   0.036   0.000   2.044
    7        2.007   0.031   0.000   2.038
    8        2.008   0.035   0.000   2.043
    9        2.002   0.026   0.000   2.028
   10        2.022   0.058   0.000   2.079
   11        2.018   0.045   0.000   2.063
   12        2.026   0.066   0.000   2.092
   13        2.012   0.039   0.000   2.052
   14        2.012   0.044   0.000   2.056
   15        2.012   0.045   0.000   2.057
   16        2.017   0.048   0.000   2.064
   17        2.016   0.047   0.000   2.063
   18        2.018   0.049   0.000   2.067
   19        2.005   0.030   0.000   2.035
   20        2.015   0.049   0.000   2.064
   21        2.018   0.049   0.000   2.067
   22        2.012   0.040   0.000   2.052
   23        2.005   0.030   0.000   2.035
   24        2.015   0.044   0.000   2.059
   25        2.018   0.051   0.000   2.070
   26        2.024   0.062   0.000   2.086
   27        2.025   0.064   0.000   2.088
   28        2.018   0.049   0.000   2.067
   29        2.020   0.052   0.000   2.072
   30        2.012   0.047   0.000   2.059
   31        2.016   0.044   0.000   2.061
   32        2.021   0.051   0.000   2.072
   33        2.014   0.042   0.000   2.056
   34        2.016   0.048   0.000   2.064
   35        2.031   0.075   0.000   2.106
   36        2.017   0.044   0.000   2.061
   37        2.008   0.034   0.000   2.042
   38        2.021   0.052   0.000   2.072
   39        2.015   0.046   0.000   2.060
   40        2.030   0.068   0.000   2.098
   41        2.019   0.051   0.000   2.069
   42        2.024   0.057   0.000   2.081
   43        2.018   0.050   0.000   2.068
   44        2.015   0.043   0.000   2.058
   45        2.007   0.032   0.000   2.039
   46        2.002   0.026   0.000   2.027
   47        2.013   0.040   0.000   2.052
   48        2.008   0.035   0.000   2.044
   49        2.012   0.039   0.000   2.050
   50        2.029   0.070   0.000   2.100
   51        2.016   0.048   0.000   2.063
   52        2.020   0.053   0.000   2.073
   53        2.016   0.046   0.000   2.062
   54        2.017   0.052   0.000   2.068
   55        2.022   0.054   0.000   2.076
   56        2.012   0.041   0.000   2.053
   57        2.011   0.043   0.000   2.053
   58        2.010   0.038   0.000   2.048
   59        2.019   0.052   0.000   2.070
   60        2.021   0.053   0.000   2.073
   61        2.028   0.064   0.000   2.092
   62        2.011   0.037   0.000   2.048
   63        2.029   0.074   0.000   2.103
   64        2.090   0.278   0.000   2.368
   65        2.014   0.043   0.000   2.057
   66        2.021   0.058   0.000   2.079
   67        2.018   0.049   0.000   2.067
   68        2.013   0.041   0.000   2.054
   69        2.009   0.035   0.000   2.045
   70        2.016   0.048   0.000   2.064
   71        2.034   0.077   0.000   2.111
   72        2.020   0.051   0.000   2.071
   73        2.038   0.089   0.000   2.127
   74        2.030   0.072   0.000   2.102
   75        2.018   0.046   0.000   2.064
   76        2.014   0.040   0.000   2.055
   77        2.029   0.070   0.000   2.099
   78        2.027   0.068   0.000   2.094
   79        2.019   0.054   0.000   2.073
   80        2.012   0.042   0.000   2.054
   81        2.025   0.064   0.000   2.088
   82        2.019   0.056   0.000   2.075
   83        2.040   0.093   0.000   2.133
   84        2.010   0.037   0.000   2.047
   85        2.014   0.044   0.000   2.058
   86        2.020   0.052   0.000   2.072
   87        2.016   0.047   0.000   2.063
   88        2.022   0.059   0.000   2.081
   89        2.027   0.068   0.000   2.095
   90        2.021   0.054   0.000   2.075
   91        2.017   0.049   0.000   2.067
   92        2.022   0.056   0.000   2.077
   93        2.015   0.047   0.000   2.062
   94        2.020   0.049   0.000   2.069
   95        2.012   0.041   0.000   2.053
   96        2.010   0.037   0.000   2.047
   97        0.981   1.412   0.000   2.394
   98        1.128   1.272   0.000   2.400
   99        1.049   1.356   0.000   2.404
  100        0.983   1.398   0.000   2.381
  101        1.107   1.236   0.000   2.343
  102        1.068   1.340   0.000   2.408
  103        1.087   1.593   0.000   2.680
  104        1.080   1.293   0.000   2.372
  105        1.085   1.338   0.000   2.423
  106        0.975   1.384   0.000   2.359
  107        1.068   1.605   0.000   2.673
  108        1.068   1.330   0.000   2.398
  109        0.995   1.553   0.000   2.548
  110        1.005   1.665   0.000   2.670
  111        0.978   1.346   0.000   2.324
  112        1.062   1.362   0.000   2.424
  113        1.332   2.481   0.000   3.813
  114        1.339   2.387   0.000   3.725
  115        1.375   2.302   0.000   3.676
  116        1.357   2.405   0.000   3.763
  117        1.346   2.389   0.000   3.735
  118        1.311   2.478   0.000   3.789
  119        1.360   2.301   0.000   3.661
  120        1.335   2.437   0.000   3.772
  121        1.363   2.317   0.000   3.680
  122        1.343   2.432   0.000   3.776
  123        1.319   2.411   0.000   3.730
  124        1.343   2.399   0.000   3.741
  125        1.336   2.471   0.000   3.807
  126        1.353   2.467   0.000   3.820
  127        1.349   2.381   0.000   3.730
  128        1.345   2.360   0.000   3.705
  129        1.345   2.370   0.000   3.715
  130        1.327   2.410   0.000   3.737
  131        1.365   2.312   0.000   3.677
  132        1.334   2.402   0.000   3.737
  133        1.345   2.429   0.000   3.774
  134        1.337   2.448   0.000   3.786
  135        1.335   2.469   0.000   3.804
  136        1.376   2.238   0.000   3.614
  137        1.385   2.270   0.000   3.655
  138        1.343   2.434   0.000   3.778
  139        1.370   2.309   0.000   3.679
  140        1.371   2.569   0.000   3.941
  141        1.334   2.411   0.000   3.746
  142        1.331   2.387   0.000   3.718
  143        1.349   2.370   0.000   3.719
  144        1.309   2.461   0.000   3.770
  145        1.308   2.482   0.000   3.791
  146        1.376   2.272   0.000   3.648
  147        1.328   2.489   0.000   3.817
  148        1.343   2.381   0.000   3.725
  149        1.351   2.357   0.000   3.708
  150        1.339   2.464   0.000   3.803
  151        1.349   2.492   0.000   3.841
  152        1.348   2.415   0.000   3.763
  153        1.342   2.373   0.000   3.715
  154        1.371   2.270   0.000   3.641
  155        1.332   2.470   0.000   3.803
  156        1.360   2.727   0.000   4.088
  157        1.343   2.415   0.000   3.758
  158        1.335   2.441   0.000   3.776
  159        1.331   2.443   0.000   3.774
  160        1.334   2.497   0.000   3.831
  161        1.342   2.507   0.000   3.849
  162        1.379   2.228   0.000   3.607
  163        1.335   2.440   0.000   3.775
  164        1.348   2.661   0.000   4.010
  165        1.342   2.529   0.000   3.871
  166        1.366   2.372   0.000   3.738
  167        1.377   2.669   0.000   4.046
  168        1.343   2.456   0.000   3.800
  169        1.339   2.407   0.000   3.746
  170        1.352   2.382   0.000   3.734
  171        1.331   2.462   0.000   3.794
  172        1.346   2.408   0.000   3.754
  173        1.344   2.427   0.000   3.770
  174        1.364   2.310   0.000   3.674
  175        1.325   2.427   0.000   3.752
  176        1.358   2.387   0.000   3.745
  177        1.311   2.470   0.000   3.781
  178        1.311   2.400   0.000   3.711
  179        1.336   2.411   0.000   3.747
  180        1.313   2.451   0.000   3.763
  181        1.312   2.475   0.000   3.786
  182        1.319   2.459   0.000   3.778
  183        1.313   2.470   0.000   3.782
  184        1.308   2.466   0.000   3.774
  185        1.311   2.469   0.000   3.780
  186        1.337   2.423   0.000   3.760
  187        1.309   2.452   0.000   3.761
  188        1.319   2.447   0.000   3.766
  189        1.314   2.480   0.000   3.793
  190        1.384   2.323   0.000   3.707
  191        1.319   2.453   0.000   3.772
  192        1.342   2.407   0.000   3.749
  193        1.592   3.607   0.000   5.198
  194        1.592   3.552   0.000   5.143
  195        1.592   3.554   0.000   5.146
  196        1.589   3.583   0.000   5.172
  197        1.598   3.603   0.000   5.201
  198        1.588   3.571   0.000   5.159
  199        1.589   3.550   0.000   5.139
  200        1.590   3.579   0.000   5.169
  201        1.595   3.627   0.000   5.222
  202        1.593   3.551   0.000   5.144
  203        1.613   3.710   0.000   5.323
  204        1.593   3.537   0.000   5.130
  205        1.594   3.607   0.000   5.201
  206        1.598   3.595   0.000   5.193
  207        1.595   3.535   0.000   5.130
  208        1.594   3.565   0.000   5.160
--------------------------------------------------
tot        343.291 278.671   0.000 621.962
 

 total amount of memory used by VASP MPI-rank0   111673. kBytes
=======================================================================

   base      :      30000. kBytes
   nonl-proj :      48226. kBytes
   fftplans  :       6264. kBytes
   grid      :      10964. kBytes
   one-center:         79. kBytes
   wavefun   :      16140. kBytes
 
  
  
 General timing and accounting informations for this job:
 ========================================================
  
                  Total CPU time used (sec):     1006.159
                            User time (sec):     1002.633
                          System time (sec):        3.526
                         Elapsed time (sec):     1007.590
  
                   Maximum memory used (kb):      327744.
                   Average memory used (kb):           0.
  
                          Minor page faults:       485899
                          Major page faults:            0
                 Voluntary context switches:         7910
