LPSC                                    
           1
    16.026082    0.000000    0.000000
     0.000000   16.100000    0.000000
     0.000000    0.000000   16.425367
   Li   P    S    Cl
  96  16  80  16
Direct configuration=     1
   0.74268308  0.82330435  0.17778355
   0.56252676  0.67814286  0.01438939
   0.66660710  0.63437888  0.18664301
   0.82841832  0.92570186  0.99955149
   0.57070281  0.78247826  0.28423414
   0.90209198  0.76607453  0.90779707
   0.23499131  0.04161205  0.04169758
   0.22314437  0.85852795  0.29465704
   0.09677849  0.98453416  0.36098128
   0.21385077  0.73351553  0.05755165
   0.10426192  0.69446584  0.88862550
   0.32585569  0.85006211  0.43773634
   0.33500141  0.49291118  0.59107051
   0.50370452  0.79914286  0.52908711
   0.70836403  0.85609938  0.77268898
   0.35055792  0.63601242  0.44393102
   0.70854498  0.52412422  0.74908524
   0.16184742  0.72298137  0.62769983
   0.99613867  0.90667702  0.86926520
   0.93557490  0.46749379  0.98742999
   0.16188299  0.48039006  0.68677309
   0.52955052  0.90524845  0.85364303
   0.01389073  0.60338820  0.74026961
   0.85800759  0.59832857  0.83411835
   0.36430863  0.48271988  0.88124667
   0.08971188  0.51653106  0.86960005
   0.26091842  0.61083168  0.83428882
   0.42554943  0.69447205  0.92456990
   0.05669545  0.31037205  0.69397536
   0.53431088  0.64392547  0.72097628
   0.26811731  0.25648696  0.02923265
   0.35658310  0.16732484  0.13413095
   0.47248105  0.06993478  0.03365423
   0.43375043  0.32728137  0.03795982
   0.62410763  0.39221491  0.18264067
   0.08325865  0.15889379  0.12583585
   0.79170941  0.10880870  0.48690906
   0.81423519  0.30860497  0.68358290
   0.63583850  0.99330435  0.94666378
   0.57913906  0.29780745  0.69888849
   0.86196364  0.17863478  0.80622856
   0.77237219  0.31024845  0.86672645
   0.46957453  0.21854907  0.36099102
   0.25285407  0.01158932  0.72443435
   0.33398494  0.08806211  0.32339125
   0.99384241  0.13949006  0.61969392
   0.41528616  0.97314907  0.48618396
   0.94031717  0.30119255  0.42226332
   0.39489877  0.42076460  0.40696442
   0.01206639  0.22104348  0.25952114
   0.18935383  0.27790186  0.31311690
   0.98614246  0.38808137  0.19278230
   0.13377817  0.45986832  0.31054222
   0.28258310  0.49799068  0.19291867
   0.79276395  0.60514286  0.30070074
   0.09112770  0.53712981  0.07664060
   0.82486786  0.49859006  0.13281043
   0.10283237  0.71229814  0.28608676
   0.95060040  0.66797516  0.04133618
   0.10728948  0.40931863  0.44713156
   0.44395380  0.01596360  0.76557802
   0.36839010  0.93367702  0.92456990
   0.39970156  0.86084472  0.64861869
   0.09498329  0.85517391  0.72459264
   0.21645528  0.84103727  0.84883339
   0.32145411  0.74586957  0.74561500
   0.04312932  0.81955901  0.46526753
   0.86665599  0.91932298  0.50539632
   0.89094140  0.78053416  0.26133784
   0.88207461  0.74113043  0.54111059
   0.78465841  0.77200000  0.40789652
   0.73984396  0.11706646  0.68774719
   0.99502798  0.32532422  0.85858660
   0.38504483  0.16803913  0.86261086
   0.13569692  0.16630745  0.84433425
   0.27958923  0.33549689  0.77906326
   0.10577071  0.85777640  0.06421713
   0.21697256  0.45275776  0.95689795
   0.58757468  0.42495466  0.38424590
   0.49005864  0.55969689  0.13023697
   0.71906533  0.22306894  0.32156907
   0.52716066  0.58627081  0.29725485
   0.42729970  0.71558385  0.24933202
   0.76324332  0.40569317  0.35683708
   0.82533585  0.04332484  0.26989473
   0.50035748  0.88750932  0.13538084
   0.64707019  0.67132298  0.40229116
   0.68920776  0.94571429  0.34052329
   0.48064586  0.02775199  0.25362173
   0.52666959  0.94093168  0.38064355
   0.38273297  0.23639503  0.72659564
   0.80769585  0.55846087  0.57516523
   0.57480300  0.08586460  0.71214847
   0.20220351  0.18533043  0.65040860
   0.58281806  0.10370373  0.47744443
   0.62626661  0.18885652  0.87228492
   0.69849886  0.92098758  0.57659899
   0.63095272  0.69350311  0.60485772
   0.34835339  0.29630124  0.22958269
   0.21510872  0.95634783  0.53180608
   0.93070159  0.55875342  0.38614480
   0.89250136  0.43904286  0.73177056
   0.53441571  0.32772733  0.56403915
   0.09897428  0.60390621  0.51830014
   0.60399728  0.10572422  0.25336481
   0.79428646  0.00752602  0.85379523
   0.90515573  0.83601863  0.11192140
   0.33285366  0.53513602  0.05090979
   0.83649890  0.26396398  0.18407503
   0.67156776  0.47521180  0.99077238
   0.27420177  0.66278882  0.25310119
   0.51619354  0.41133665  0.84922912
   0.68860249  0.04381795  0.57471410
   0.64707019  0.88413043  0.45949293
   0.60936042  0.86407453  0.64987285
   0.78989362  0.86954037  0.63633281
   0.68663071  0.67827950  0.71603271
   0.72041314  0.73777019  0.29379252
   0.51221690  0.96126708  0.63397670
   0.50188125  0.69727950  0.42210807
   0.42482061  0.39639006  0.17958625
   0.33717536  0.28358447  0.35264174
   0.11804070  0.14352484  0.25932876
   0.23832088  0.34486025  0.18138895
   0.24844313  0.97452795  0.41535815
   0.27751886  0.04788025  0.56965181
   0.28459545  0.84365217  0.56578827
   0.08161196  0.94848447  0.52636023
   0.90326507  0.44367702  0.43417843
   0.65852028  0.52954845  0.30518344
   0.07235892  0.58744783  0.39110542
   0.67405121  0.31110124  0.44098254
   0.87316413  0.40389379  0.85724721
   0.01798967  0.43571304  0.76822028
   0.87418747  0.55976522  0.69669067
   0.67569229  0.49354907  0.54465084
   0.56758165  0.57977081  0.58894696
   0.48546239  0.43506646  0.52196094
   0.42826188  0.23749130  0.57487422
   0.56098116  0.26745280  0.48509784
   0.02968380  0.70567081  0.56988620
   0.34887878  0.64845342  0.59456875
   0.06161412  0.49059689  0.57345751
   0.17079783  0.71651553  0.76674086
   0.46253663  0.07340559  0.39014714
   0.68644351  0.10332236  0.15650183
   0.67557373  0.08555590  0.35477807
   0.58745737  0.23804907  0.25001633
   0.74827397  0.10075031  0.93501107
   0.68354823  0.99997516  0.79266418
   0.79473573  0.88702484  0.89624786
   0.87715762  0.03578776  0.76816548
   0.82755099  0.94629193  0.15668447
   0.92160392  0.57393478  0.24154224
   0.97536004  0.90024224  0.02896416
   0.84062343  0.77544099  0.06266709
   0.37158614  0.58224845  0.28653424
   0.44260288  0.57076273  0.98521391
   0.24917132  0.60647516  0.98389278
   0.33171801  0.41260807  0.00820457
   0.85115002  0.19586087  0.27992799
   0.73531385  0.22294286  0.10064554
   0.94868478  0.26254658  0.12424076
   0.82634670  0.36217702  0.22232441
   0.64360709  0.50400932  0.09839232
   0.60224264  0.37783478  0.94265778
   0.75921239  0.41983354  0.98951823
   0.72324602  0.55830807  0.92301743
   0.16808288  0.59200497  0.21766089
   0.29828002  0.76337267  0.18012687
   0.44871853  0.78459006  0.35932591
   0.24930672  0.69975155  0.37291526
   0.51122788  0.28682298  0.80715396
   0.70339712  0.42406832  0.64730365
   0.50031193  0.09435466  0.86451645
   0.56091189  0.47601615  0.75437584
   0.53304232  0.70102484  0.17307132
   0.23087178  0.89422360  0.99811468
   0.43088323  0.72803727  0.64276189
   0.98083237  0.60679130  0.92099616
   0.23828032  0.47050373  0.80577804
   0.38624724  0.18058199  0.99432786
   0.71763017  0.24407391  0.75270769
   0.25752146  0.16581491  0.77166617
   0.05534634  0.34342298  0.33611547
   0.96578190  0.51103230  0.12920320
   0.33942544  0.91401863  0.78268571
   0.91080902  0.82246584  0.40383694
   0.00118879  0.21968509  0.79550734
   0.53696718  0.43977081  0.25446068
   0.58348510  0.91688820  0.23400208
   0.47116444  0.14086460  0.63364794
   0.52713695  0.93863975  0.00785766
   0.36986333  0.02101677  0.15862781
   0.24556844  0.45022919  0.44105864
   0.54152787  0.77537267  0.89275326
   0.38756322  0.63806832  0.78401292
   0.15388540  0.16104969  0.99181954
   0.86961991  0.21353665  0.55658482
   0.09028969  0.24369565  0.57806684
   0.08285743  0.73147826  0.06578301
   0.07660762  0.85681366  0.27246088
   0.10218093  0.93791925  0.77057030
   0.94776752  0.79447205  0.76857948
   0.06532164  0.43055963  0.96623107
   0.77302737  0.66805590  0.50349925
   0.90185486  0.01379820  0.38536978
   0.26221630  0.38239317  0.62446702
