       N       E                     dE             d eps       ncg     rms          rms(c)
RMM:   1    -0.380363933497E+04   -0.38036E+04   -0.47070E+05   592   0.130E+03
RMM:   2     0.243301029362E+04    0.62366E+04   -0.73606E+04   592   0.251E+02
RMM:   3     0.829811320517E+03   -0.16032E+04   -0.23504E+04   592   0.135E+02
RMM:   4     0.660061190942E+01   -0.82321E+03   -0.83408E+03   592   0.978E+01
RMM:   5    -0.355695793134E+03   -0.36230E+03   -0.33174E+03   592   0.636E+01
RMM:   6    -0.511544146305E+03   -0.15585E+03   -0.14201E+03   592   0.469E+01
RMM:   7    -0.586678370652E+03   -0.75134E+02   -0.71581E+02   592   0.361E+01
RMM:   8    -0.630647778044E+03   -0.43969E+02   -0.41341E+02   592   0.309E+01
RMM:   9    -0.743847660697E+03   -0.11320E+03   -0.11236E+03  2143   0.270E+01
RMM:  10    -0.799099960836E+03   -0.55252E+02   -0.55120E+02  2135   0.174E+01
RMM:  11    -0.812270056582E+03   -0.13170E+02   -0.13610E+02  2072   0.111E+01
RMM:  12    -0.820117449712E+03   -0.78474E+01   -0.78517E+01  2048   0.834E+00    0.803E+01
RMM:  13    -0.777135462862E+03    0.42982E+02   -0.11025E+02  1583   0.893E+00    0.520E+01
RMM:  14    -0.775642254989E+03    0.14932E+01   -0.89801E+01  1690   0.779E+00    0.195E+01
RMM:  15    -0.777858144084E+03   -0.22159E+01   -0.35675E+01  1903   0.499E+00    0.108E+01
RMM:  16    -0.776065193844E+03    0.17930E+01   -0.10275E+01  1950   0.336E+00    0.613E+00
RMM:  17    -0.775171411881E+03    0.89378E+00   -0.58253E+00  1954   0.252E+00    0.408E+00
RMM:  18    -0.775083600543E+03    0.87811E-01   -0.36683E+00  1934   0.200E+00    0.319E+00
RMM:  19    -0.775008272975E+03    0.75328E-01   -0.24814E+00  1944   0.161E+00    0.190E+00
RMM:  20    -0.775090909948E+03   -0.82637E-01   -0.15623E+00  1951   0.136E+00    0.135E+00
RMM:  21    -0.775172346513E+03   -0.81437E-01   -0.10934E+00  2041   0.110E+00    0.745E-01
RMM:  22    -0.775232005056E+03   -0.59659E-01   -0.56076E-01  2020   0.887E-01    0.978E-01
RMM:  23    -0.775267588844E+03   -0.35584E-01   -0.43434E-01  2049   0.743E-01    0.445E-01
RMM:  24    -0.775297705993E+03   -0.30117E-01   -0.31706E-01  2034   0.620E-01    0.320E-01
RMM:  25    -0.775315534055E+03   -0.17828E-01   -0.19424E-01  2048   0.504E-01    0.254E-01
RMM:  26    -0.775327412555E+03   -0.11878E-01   -0.13558E-01  2042   0.426E-01    0.101E-01
RMM:  27    -0.775336992007E+03   -0.95795E-02   -0.99888E-02  2049   0.356E-01    0.919E-02
RMM:  28    -0.775342805675E+03   -0.58137E-02   -0.63244E-02  2040   0.299E-01    0.346E-02
RMM:  29    -0.775347709551E+03   -0.49039E-02   -0.49745E-02  2045   0.254E-01    0.482E-02
RMM:  30    -0.775350869882E+03   -0.31603E-02   -0.34051E-02  2044   0.216E-01    0.226E-02
RMM:  31    -0.775353414650E+03   -0.25448E-02   -0.26549E-02  2043   0.183E-01    0.225E-02
RMM:  32    -0.775355140332E+03   -0.17257E-02   -0.18097E-02  2022   0.154E-01    0.178E-02
RMM:  33    -0.775356340465E+03   -0.12001E-02   -0.13324E-02  2047   0.131E-01    0.127E-02
RMM:  34    -0.775357393877E+03   -0.10534E-02   -0.98870E-03  1936   0.113E-01    0.500E-02
RMM:  35    -0.775358031618E+03   -0.63774E-03   -0.70472E-03  1859   0.960E-02    0.455E-02
RMM:  36    -0.775358541189E+03   -0.50957E-03   -0.54813E-03  1854   0.827E-02    0.577E-02
RMM:  37    -0.775358877511E+03   -0.33632E-03   -0.37894E-03  1848   0.704E-02    0.590E-02
RMM:  38    -0.775359148686E+03   -0.27118E-03   -0.30572E-03  1852   0.610E-02    0.601E-02
RMM:  39    -0.775359329180E+03   -0.18049E-03   -0.21145E-03  1839   0.522E-02    0.731E-02
RMM:  40    -0.775359470835E+03   -0.14166E-03   -0.16730E-03  1842   0.452E-02    0.724E-02
RMM:  41    -0.775359577566E+03   -0.10673E-03   -0.12617E-03  1840   0.390E-02    0.663E-02
RMM:  42    -0.775359641834E+03   -0.64268E-04   -0.84901E-04  1929   0.340E-02    0.466E-02
RMM:  43    -0.775359706431E+03   -0.64597E-04   -0.75454E-04  1822   0.293E-02    0.469E-02
RMM:  44    -0.775359746714E+03   -0.40283E-04   -0.49599E-04  1816   0.250E-02    0.497E-02
RMM:  45    -0.775359779063E+03   -0.32349E-04   -0.40980E-04  1775   0.218E-02    0.486E-02
RMM:  46    -0.775359802663E+03   -0.23600E-04   -0.29814E-04  1773   0.190E-02    0.499E-02
RMM:  47    -0.775359820790E+03   -0.18127E-04   -0.23774E-04  1747   0.166E-02    0.506E-02
RMM:  48    -0.775359834259E+03   -0.13469E-04   -0.18199E-04  1694   0.146E-02    0.513E-02
RMM:  49    -0.775359844148E+03   -0.98888E-05   -0.14024E-04  1656   0.129E-02    0.519E-02
RMM:  50    -0.775359851411E+03   -0.72630E-05   -0.10918E-04  1611   0.115E-02    0.501E-02
RMM:  51    -0.775359857468E+03   -0.60570E-05   -0.85134E-05  1556   0.103E-02    0.512E-02
RMM:  52    -0.775359861839E+03   -0.43714E-05   -0.66340E-05  1458   0.924E-03    0.518E-02
RMM:  53    -0.775359865101E+03   -0.32622E-05   -0.50805E-05  1411   0.842E-03    0.522E-02
RMM:  54    -0.775359867800E+03   -0.26992E-05   -0.41298E-05  1384   0.777E-03    0.527E-02
RMM:  55    -0.775359869696E+03   -0.18960E-05   -0.31248E-05  1307   0.722E-03    0.530E-02
RMM:  56    -0.775359871240E+03   -0.15436E-05   -0.24827E-05  1231   0.681E-03    0.532E-02
RMM:  57    -0.775359872469E+03   -0.12290E-05   -0.20285E-05  1226   0.648E-03    0.533E-02
RMM:  58    -0.775359873402E+03   -0.93333E-06   -0.15818E-05  1133   0.622E-03    0.533E-02
RMM:  59    -0.775359874202E+03   -0.79941E-06   -0.13401E-05  1097   0.603E-03    0.538E-02
RMM:  60    -0.775359874795E+03   -0.59341E-06   -0.11495E-05  1075   0.588E-03    0.539E-02
RMM:  61    -0.775359875265E+03   -0.46971E-06   -0.96884E-06  1064   0.575E-03
   1 F= -.77535988E+03 E0= -.77535840E+03  d E =-.775360E+03
