       N       E                     dE             d eps       ncg     rms          rms(c)
RMM:   1    -0.379798713768E+04   -0.37980E+04   -0.47002E+05   592   0.130E+03
RMM:   2     0.238817509237E+04    0.61862E+04   -0.73589E+04   592   0.250E+02
RMM:   3     0.791749237316E+03   -0.15964E+04   -0.23395E+04   592   0.134E+02
RMM:   4    -0.385464517990E+02   -0.83030E+03   -0.83328E+03   592   0.974E+01
RMM:   5    -0.401379481559E+03   -0.36283E+03   -0.33236E+03   592   0.634E+01
RMM:   6    -0.553486877021E+03   -0.15211E+03   -0.14004E+03   592   0.467E+01
RMM:   7    -0.625659571402E+03   -0.72173E+02   -0.69216E+02   592   0.357E+01
RMM:   8    -0.667619790501E+03   -0.41960E+02   -0.39606E+02   592   0.305E+01
RMM:   9    -0.778071431645E+03   -0.11045E+03   -0.10970E+03  2143   0.266E+01
RMM:  10    -0.834687641621E+03   -0.56616E+02   -0.55784E+02  2137   0.172E+01
RMM:  11    -0.847421496222E+03   -0.12734E+02   -0.12960E+02  2070   0.104E+01
RMM:  12    -0.854237392780E+03   -0.68159E+01   -0.68135E+01  2042   0.750E+00    0.724E+01
RMM:  13    -0.817352267549E+03    0.36885E+02   -0.89801E+01  1587   0.804E+00    0.477E+01
RMM:  14    -0.813969321569E+03    0.33829E+01   -0.75467E+01  1666   0.716E+00    0.147E+01
RMM:  15    -0.815597369706E+03   -0.16280E+01   -0.21875E+01  1838   0.433E+00    0.596E+00
RMM:  16    -0.814885890490E+03    0.71148E+00   -0.53543E+00  2021   0.271E+00    0.423E+00
RMM:  17    -0.814601036851E+03    0.28485E+00   -0.47124E+00  1941   0.215E+00    0.221E+00
RMM:  18    -0.814760768750E+03   -0.15973E+00   -0.22848E+00  1953   0.162E+00    0.152E+00
RMM:  19    -0.814850304072E+03   -0.89535E-01   -0.13645E+00  1949   0.133E+00    0.795E-01
RMM:  20    -0.814965320495E+03   -0.11502E+00   -0.12099E+00  2044   0.107E+00    0.532E-01
RMM:  21    -0.815009982702E+03   -0.44662E-01   -0.49366E-01  2018   0.835E-01    0.303E-01
RMM:  22    -0.815051491819E+03   -0.41509E-01   -0.44592E-01  2048   0.685E-01    0.306E-01
RMM:  23    -0.815074070847E+03   -0.22579E-01   -0.23652E-01  2025   0.551E-01    0.311E-01
RMM:  24    -0.815089349111E+03   -0.15278E-01   -0.16527E-01  2050   0.449E-01    0.321E-01
RMM:  25    -0.815099321064E+03   -0.99720E-02   -0.10731E-01  2021   0.379E-01    0.177E-01
RMM:  26    -0.815105277953E+03   -0.59569E-02   -0.75867E-02  2046   0.311E-01    0.619E-02
RMM:  27    -0.815110718136E+03   -0.54402E-02   -0.53443E-02  1980   0.259E-01    0.915E-02
RMM:  28    -0.815114026502E+03   -0.33084E-02   -0.36103E-02  2049   0.216E-01    0.676E-02
RMM:  29    -0.815116871031E+03   -0.28445E-02   -0.30036E-02  2046   0.181E-01    0.760E-02
RMM:  30    -0.815118339543E+03   -0.14685E-02   -0.16313E-02  2049   0.148E-01    0.519E-02
RMM:  31    -0.815119661890E+03   -0.13223E-02   -0.14979E-02  2050   0.126E-01    0.225E-02
RMM:  32    -0.815120451217E+03   -0.78933E-03   -0.82924E-03  2021   0.101E-01    0.211E-02
RMM:  33    -0.815121041828E+03   -0.59061E-03   -0.63984E-03  1926   0.850E-02    0.208E-02
RMM:  34    -0.815121440193E+03   -0.39836E-03   -0.44085E-03  1934   0.719E-02    0.174E-02
RMM:  35    -0.815121745981E+03   -0.30579E-03   -0.32374E-03  1858   0.603E-02    0.234E-02
RMM:  36    -0.815121975647E+03   -0.22967E-03   -0.23545E-03  1855   0.517E-02    0.387E-02
RMM:  37    -0.815122106892E+03   -0.13124E-03   -0.16617E-03  1862   0.440E-02    0.286E-02
RMM:  38    -0.815122224041E+03   -0.11715E-03   -0.13724E-03  1868   0.377E-02    0.258E-02
RMM:  39    -0.815122293729E+03   -0.69688E-04   -0.86473E-04  1839   0.315E-02    0.220E-02
RMM:  40    -0.815122340590E+03   -0.46861E-04   -0.70183E-04  1881   0.273E-02    0.119E-02
RMM:  41    -0.815122375109E+03   -0.34519E-04   -0.49543E-04  1827   0.232E-02    0.687E-03
RMM:  42    -0.815122393710E+03   -0.18601E-04   -0.35976E-04  1790   0.199E-02    0.426E-03
RMM:  43    -0.815122401446E+03   -0.77360E-05   -0.27607E-04  1786   0.174E-02    0.116E-02
RMM:  44    -0.815122416359E+03   -0.14912E-04   -0.20276E-04  1611   0.148E-02    0.129E-02
RMM:  45    -0.815122432997E+03   -0.16638E-04   -0.15436E-04  1495   0.129E-02    0.111E-02
RMM:  46    -0.815122444369E+03   -0.11372E-04   -0.11427E-04  1508   0.114E-02    0.103E-02
RMM:  47    -0.815122451524E+03   -0.71553E-05   -0.90675E-05  1497   0.102E-02    0.104E-02
RMM:  48    -0.815122453543E+03   -0.20190E-05   -0.66371E-05  1402   0.913E-03    0.121E-02
RMM:  49    -0.815122458521E+03   -0.49776E-05   -0.52302E-05  1357   0.832E-03    0.118E-02
RMM:  50    -0.815122461649E+03   -0.31288E-05   -0.39676E-05  1329   0.763E-03    0.119E-02
RMM:  51    -0.815122464003E+03   -0.23537E-05   -0.30927E-05  1274   0.708E-03    0.119E-02
RMM:  52    -0.815122466270E+03   -0.22673E-05   -0.23618E-05  1226   0.663E-03    0.117E-02
RMM:  53    -0.815122467898E+03   -0.16277E-05   -0.18839E-05  1213   0.630E-03    0.116E-02
RMM:  54    -0.815122469012E+03   -0.11135E-05   -0.14063E-05  1132   0.603E-03    0.116E-02
RMM:  55    -0.815122470307E+03   -0.12950E-05   -0.12830E-05  1182   0.585E-03    0.114E-02
RMM:  56    -0.815122470928E+03   -0.62105E-06   -0.10295E-05  1152   0.567E-03    0.114E-02
RMM:  57    -0.815122471342E+03   -0.41394E-06   -0.80005E-06  1068   0.555E-03
   1 F= -.81512247E+03 E0= -.81512214E+03  d E =-.815122E+03
