 vasp.5.4.4.18Apr17-6-g9f103f2a35 (build Jan 22 2020 12:49:05) complex          
  
 executed on Bebop BDW IPS19.0.5  date 2022.10.04  12:28:53
 running on   64 total cores
 distrk:  each k-point on   64 cores,    1 groups
 distr:  one band on NCORES_PER_BAND=   8 cores,    8 groups


--------------------------------------------------------------------------------------------------------


 INCAR:
 POTCAR:    PAW_PBE Li_sv 10Sep2004               
 POTCAR:    PAW_PBE P 06Sep2000                   
 POTCAR:    PAW_PBE S 06Sep2000                   
 POTCAR:    PAW_PBE Cl 06Sep2000                  
 POTCAR:    PAW_PBE Li_sv 10Sep2004               
   VRHFIN =Li: 1s2s2p                                                           
   LEXCH  = PE                                                                  
   EATOM  =   202.7858 eV,   14.9043 Ry                                         
                                                                                
   TITEL  = PAW_PBE Li_sv 10Sep2004                                             
   LULTRA =        F    use ultrasoft PP ?                                      
   IUNSCR =        0    unscreen: 0-lin 1-nonlin 2-no                           
   RPACOR =    0.000    partial core radius                                     
   POMASS =    7.010; ZVAL   =    3.000    mass and valenz                      
   RCORE  =    1.700    outmost cutoff radius                                   
   RWIGS  =    2.050; RWIGS  =    1.085    wigner-seitz radius (au A)           
   ENMAX  =  499.034; ENMIN  =  374.276 eV                                      
   ICORE  =        2    local potential                                         
   LCOR   =        T    correct aug charges                                     
   LPAW   =        T    paw PP                                                  
   EAUG   =  628.945                                                            
   RMAX   =    1.732    core radius for proj-oper                               
   RAUG   =    1.300    factor for augmentation sphere                          
   RDEP   =    1.728    radius for radial grids                                 
   RDEPT  =    1.329    core radius for aug-charge                              
                                                                                
   Atomic configuration                                                         
    4 entries                                                                   
     n  l   j            E        occ.                                          
     1  0  0.50       -51.8549   2.0000                                         
     2  0  0.50        -2.8742   1.0000                                         
     2  1  0.50        -1.3606   0.0000                                         
     3  2  1.50        -1.3606   0.0000                                         
   Description                                                                  
     l       E           TYP  RCUT    TYP  RCUT                                 
     0    -51.8548813     23  1.400                                             
     0     -2.8742052     23  1.700                                             
     1     -1.3605826     23  1.400                                             
     2     -1.3605826     23  1.400                                             
  local pseudopotential read in
  atomic valenz-charges read in
  non local Contribution for L=           0  read in
    real space projection operators read in
  non local Contribution for L=           0  read in
    real space projection operators read in
  non local Contribution for L=           1  read in
    real space projection operators read in
    PAW grid and wavefunctions read in
 
   number of l-projection  operators is LMAX  =           3
   number of lm-projection operators is LMMAX =           5
 
 POTCAR:    PAW_PBE P 06Sep2000                   
   VRHFIN =P : s2p3                                                             
   LEXCH  = PE                                                                  
   EATOM  =   176.0430 eV,   12.9388 Ry                                         
                                                                                
   TITEL  = PAW_PBE P 06Sep2000                                                 
   LULTRA =        F    use ultrasoft PP ?                                      
   IUNSCR =        1    unscreen: 0-lin 1-nonlin 2-no                           
   RPACOR =    1.500    partial core radius                                     
   POMASS =   30.974; ZVAL   =    5.000    mass and valenz                      
   RCORE  =    1.900    outmost cutoff radius                                   
   RWIGS  =    2.330; RWIGS  =    1.233    wigner-seitz radius (au A)           
   ENMAX  =  255.040; ENMIN  =  191.280 eV                                      
   ICORE  =        2    local potential                                         
   LCOR   =        T    correct aug charges                                     
   LPAW   =        T    paw PP                                                  
   EAUG   =  342.924                                                            
   DEXC   =    0.000                                                            
   RMAX   =    1.935    core radius for proj-oper                               
   RAUG   =    1.300    factor for augmentation sphere                          
   RDEP   =    1.931    radius for radial grids                                 
   RDEPT  =    1.794    core radius for aug-charge                              
                                                                                
   Atomic configuration                                                         
    6 entries                                                                   
     n  l   j            E        occ.                                          
     1  0  0.50     -2084.0982   2.0000                                         
     2  0  0.50      -173.9859   2.0000                                         
     2  1  1.50      -124.4865   6.0000                                         
     3  0  0.50       -13.9692   2.0000                                         
     3  1  0.50        -5.5067   3.0000                                         
     3  2  1.50        -5.4423   0.0000                                         
   Description                                                                  
     l       E           TYP  RCUT    TYP  RCUT                                 
     0    -13.9691527     23  1.900                                             
     0    -11.7794650     23  1.900                                             
     1     -5.5066937     23  1.900                                             
     1     -0.2556953     23  1.900                                             
     2     -5.4423304     23  1.900                                             
  local pseudopotential read in
  partial core-charges read in
  partial kinetic energy density read in
  atomic valenz-charges read in
  non local Contribution for L=           0  read in
    real space projection operators read in
  non local Contribution for L=           0  read in
    real space projection operators read in
  non local Contribution for L=           1  read in
    real space projection operators read in
  non local Contribution for L=           1  read in
    real space projection operators read in
    PAW grid and wavefunctions read in
 
   number of l-projection  operators is LMAX  =           4
   number of lm-projection operators is LMMAX =           8
 
 POTCAR:    PAW_PBE S 06Sep2000                   
   VRHFIN =S : s2p4                                                             
   LEXCH  = PE                                                                  
   EATOM  =   276.8230 eV,   20.3459 Ry                                         
                                                                                
   TITEL  = PAW_PBE S 06Sep2000                                                 
   LULTRA =        F    use ultrasoft PP ?                                      
   IUNSCR =        1    unscreen: 0-lin 1-nonlin 2-no                           
   RPACOR =    1.500    partial core radius                                     
   POMASS =   32.066; ZVAL   =    6.000    mass and valenz                      
   RCORE  =    1.900    outmost cutoff radius                                   
   RWIGS  =    2.200; RWIGS  =    1.164    wigner-seitz radius (au A)           
   ENMAX  =  258.689; ENMIN  =  194.016 eV                                      
   ICORE  =        2    local potential                                         
   LCOR   =        T    correct aug charges                                     
   LPAW   =        T    paw PP                                                  
   EAUG   =  335.092                                                            
   DEXC   =    0.000                                                            
   RMAX   =    1.942    core radius for proj-oper                               
   RAUG   =    1.300    factor for augmentation sphere                          
   RDEP   =    1.954    radius for radial grids                                 
   RDEPT  =    1.744    core radius for aug-charge                              
                                                                                
   Atomic configuration                                                         
    6 entries                                                                   
     n  l   j            E        occ.                                          
     1  0  0.50     -2405.8406   2.0000                                         
     2  0  0.50      -211.7007   2.0000                                         
     2  1  1.50      -156.4958   6.0000                                         
     3  0  0.50       -17.2562   2.0000                                         
     3  1  0.50        -7.0085   4.0000                                         
     3  2  1.50        -6.8029   0.0000                                         
   Description                                                                  
     l       E           TYP  RCUT    TYP  RCUT                                 
     0    -17.2561641     23  1.900                                             
     0    -15.8743224     23  1.900                                             
     1     -7.0085400     23  1.900                                             
     1     -2.7779785     23  1.900                                             
     2     -6.8029130     23  1.900                                             
  local pseudopotential read in
  partial core-charges read in
  partial kinetic energy density read in
  atomic valenz-charges read in
  non local Contribution for L=           0  read in
    real space projection operators read in
  non local Contribution for L=           0  read in
    real space projection operators read in
  non local Contribution for L=           1  read in
    real space projection operators read in
  non local Contribution for L=           1  read in
    real space projection operators read in
    PAW grid and wavefunctions read in
 
   number of l-projection  operators is LMAX  =           4
   number of lm-projection operators is LMMAX =           8
 
 POTCAR:    PAW_PBE Cl 06Sep2000                  
   VRHFIN =Cl: s2p5                                                             
   LEXCH  = PE                                                                  
   EATOM  =   409.7259 eV,   30.1140 Ry                                         
                                                                                
   TITEL  = PAW_PBE Cl 06Sep2000                                                
   LULTRA =        F    use ultrasoft PP ?                                      
   IUNSCR =        1    unscreen: 0-lin 1-nonlin 2-no                           
   RPACOR =    1.500    partial core radius                                     
   POMASS =   35.453; ZVAL   =    7.000    mass and valenz                      
   RCORE  =    1.900    outmost cutoff radius                                   
   RWIGS  =    2.100; RWIGS  =    1.111    wigner-seitz radius (au A)           
   ENMAX  =  262.472; ENMIN  =  196.854 eV                                      
   ICORE  =        2    local potential                                         
   LCOR   =        T    correct aug charges                                     
   LPAW   =        T    paw PP                                                  
   EAUG   =  356.192                                                            
   DEXC   =    0.000                                                            
   RMAX   =    1.945    core radius for proj-oper                               
   RAUG   =    1.300    factor for augmentation sphere                          
   RDEP   =    2.020    radius for radial grids                                 
   RDEPT  =    1.678    core radius for aug-charge                              
                                                                                
   Atomic configuration                                                         
    6 entries                                                                   
     n  l   j            E        occ.                                          
     1  0  0.50     -2751.1850   2.0000                                         
     2  0  0.50      -252.6861   2.0000                                         
     2  1  1.50      -191.6157   6.0000                                         
     3  0  0.50       -20.6916   2.0000                                         
     3  1  0.50        -8.5949   5.0000                                         
     3  2  1.50        -8.1635   0.0000                                         
   Description                                                                  
     l       E           TYP  RCUT    TYP  RCUT                                 
     0    -20.6915656     23  1.900                                             
     0    -22.0521482     23  1.900                                             
     1     -8.5948577     23  1.900                                             
     1     -5.3847331     23  1.900                                             
     2     -8.1634956     23  1.900                                             
  local pseudopotential read in
  partial core-charges read in
  partial kinetic energy density read in
  atomic valenz-charges read in
  non local Contribution for L=           0  read in
    real space projection operators read in
  non local Contribution for L=           0  read in
    real space projection operators read in
  non local Contribution for L=           1  read in
    real space projection operators read in
  non local Contribution for L=           1  read in
    real space projection operators read in
    PAW grid and wavefunctions read in
 
   number of l-projection  operators is LMAX  =           4
   number of lm-projection operators is LMMAX =           8
 

 ----------------------------------------------------------------------------- 
|                                                                             |
|  ADVICE TO THIS USER RUNNING 'VASP/VAMP'   (HEAR YOUR MASTER'S VOICE ...):  |
|                                                                             |
|      You have a (more or less) 'large supercell' and for larger cells       |
|      it might be more efficient to use real space projection opertators     |
|      So try LREAL= Auto  in the INCAR   file.                               |
|      Mind:          For very  accurate calculation you might also keep the  |
|      reciprocal projection scheme          (i.e. LREAL=.FALSE.)             |
|                                                                             |
 ----------------------------------------------------------------------------- 

  PAW_PBE Li_sv 10Sep2004               :
 energy of atom  1       EATOM= -202.7858
 kinetic energy error for atom=    0.0143 (will be added to EATOM!!)
  PAW_PBE P 06Sep2000                   :
 energy of atom  2       EATOM= -176.0430
 kinetic energy error for atom=    0.0013 (will be added to EATOM!!)
  PAW_PBE S 06Sep2000                   :
 energy of atom  3       EATOM= -276.8230
 kinetic energy error for atom=    0.0020 (will be added to EATOM!!)
  PAW_PBE Cl 06Sep2000                  :
 energy of atom  4       EATOM= -409.7259
 kinetic energy error for atom=    0.0030 (will be added to EATOM!!)
 
 
 POSCAR: New POSCAR file                         
  positions in cartesian coordinates
  No initial velocities read in
 exchange correlation table for  LEXCH =        8
   RHO(1)=    0.500       N(1)  =     2000
   RHO(2)=  100.500       N(2)  =     4000
 


--------------------------------------------------------------------------------------------------------


 ion  position               nearest neighbor table
   1  0.726  0.813  0.189- 118 2.10 153 2.66
   2  0.574  0.674  0.002- 196 2.41
   3  0.661  0.631  0.191- 177 2.28 165 2.52 130 2.57 118 2.59
   4  0.832  0.937  0.022- 151 2.24 153 2.26 155 2.29 107 2.46
   5  0.580  0.774  0.296- 118 2.23 171 2.29 177 2.41 191 2.56  87 2.59
   6  0.908  0.752  0.906- 204 2.44 180 2.49
   7  0.238  0.047  0.050- 198 2.54 178 2.55
   8  0.210  0.853  0.282- 202 2.10 170 2.62
   9  0.109  0.006  0.362- 125 2.37 123 2.64
  10  0.226  0.741  0.056- 201 2.23 159 2.44 170 2.50 178 2.65
  11  0.104  0.690  0.898- 144 2.38 180 2.47
  12  0.329  0.846  0.431- 127 2.32 125 2.41 171 2.48
  13  0.359  0.489  0.612- 208 2.27 142 2.57 138 2.64
  14  0.528  0.809  0.535- 115 2.47 179 2.59 120 2.61 114 2.67
  15  0.720  0.856  0.769- 150 2.36 151 2.51 116 2.68
  16  0.344  0.638  0.439- 172 2.21 142 2.36
  17  0.703  0.534  0.762- 117 2.37 176 2.51 168 2.63 174 2.64
  18  0.160  0.717  0.629- 141 2.29 144 2.35 104 2.78
  19  0.974  0.909  0.875- 155 2.49 204 2.52
  20  0.917  0.477  0.969- 133 2.32 180 2.49 205 2.52 167 2.64
  21  0.163  0.467  0.683- 208 2.41 181 2.42 134 2.53 143 2.58
  22  0.509  0.885  0.871- 196 2.00 193 2.39
  23  0.010  0.625  0.745- 135 2.67
  24  0.840  0.574  0.850- 168 2.32 180 2.48 135 2.58 133 2.67
  25  0.366  0.487  0.876- 181 2.39 160 2.47 158 2.58 112 2.58
  26  0.079  0.512  0.873- 205 2.20 134 2.37 180 2.46  78 2.57
  27  0.238  0.608  0.816- 181 2.23 144 2.23 197 2.39
  28  0.427  0.705  0.914- 196 1.97 197 2.42 158 2.61
  29  0.062  0.315  0.684- 200 2.10 134 2.40 189 2.52
  30  0.529  0.638  0.737- 197 2.51 117 2.58 176 2.64  98 2.71
  31  0.272  0.264  0.044- 182 2.28  32 2.60 124 2.67 160 2.69
  32  0.355  0.173  0.147-  99 2.40 182 2.44  31 2.60 194 2.60
  33  0.471  0.075  0.012- 182 2.26 193 2.43 175 2.53
  34  0.433  0.321  0.053- 160 2.35 121 2.53 182 2.55
  35  0.632  0.385  0.191- 190 2.11 165 2.42 148 2.58
  36  0.080  0.168  0.130- 123 2.37 198 2.45 163 2.56
  37  0.805  0.110  0.481- 199 2.35 113 2.42 207 2.48
  38  0.817  0.310  0.670- 183 2.39 174 2.46 102 2.64
  39  0.623  0.004  0.939- 193 2.13 149 2.50 150 2.63 175 2.64
  40  0.572  0.311  0.683- 103 2.02 173 2.20
  41  0.861  0.177  0.811- 152 2.36 189 2.37 183 2.52
  42  0.764  0.319  0.866- 133 2.27 183 2.32 167 2.54
  43  0.473  0.216  0.359- 145 2.38 122 2.41 140 2.44 148 2.68
  44  0.254  0.005  0.730- 187 2.18 126 2.63
  45  0.327  0.090  0.339- 145 2.44 125 2.61
  46  0.985  0.169  0.621- 199 2.19 200 2.40
  47  0.413  0.012  0.505- 145 2.31 126 2.49 119 2.67
  48  0.939  0.327  0.416- 129 2.19 185 2.32
  49  0.381  0.419  0.393- 122 2.30 195 2.33 138 2.55
  50  0.999  0.214  0.263- 161 2.28 123 2.37 163 2.51
  51  0.183  0.270  0.306- 185 2.45 123 2.45 124 2.47 122 2.67
  52  0.966  0.388  0.210- 164 2.43 163 2.48 186 2.49 185 2.66
  53  0.137  0.478  0.315- 131 2.42 169 2.42 185 2.43
  54  0.291  0.485  0.203- 157 2.38 124 2.48 121 2.53 169 2.59 108 2.72
  55  0.790  0.605  0.303- 154 2.36 130 2.42 118 2.48
  56  0.111  0.580  0.084- 169 2.43 201 2.53 186 2.63
  57  0.804  0.476  0.122- 167 2.44 164 2.53 165 2.57 186 2.67
  58  0.085  0.707  0.293- 202 2.38 131 2.49 169 2.62
  59  0.958  0.660  0.040- 180 2.17 201 2.43 156 2.61
  60  0.108  0.409  0.460- 185 2.32 195 2.37 143 2.45
  61  0.436  0.015  0.753- 187 2.35 175 2.42 119 2.46
  62  0.332  0.940  0.913- 187 2.12 178 2.33  65 2.60
  63  0.388  0.881  0.639- 119 2.26 127 2.29 179 2.59 187 2.61
  64  0.087  0.839  0.747- 203 1.81 204 2.35 144 2.36
  65  0.211  0.848  0.859- 178 2.49 187 2.57  62 2.60 144 2.61
  66  0.310  0.755  0.747- 197 2.33 144 2.38 187 2.66
  67  0.041  0.829  0.465- 188 2.16 128 2.36 141 2.59
  68  0.878  0.910  0.489- 188 2.16 207 2.41 116 2.66
  69  0.875  0.798  0.257- 107 2.47 188 2.54
  70  0.896  0.737  0.529- 206 2.25 141 2.31 188 2.48
  71  0.781  0.772  0.415- 118 2.31 206 2.31 188 2.39
  72  0.747  0.107  0.704- 183 2.26 150 2.50 113 2.60
  73  0.992  0.333  0.860- 189 2.23 133 2.33 134 2.48
  74  0.372  0.183  0.863- 182 2.27 184 2.35 175 2.63
  75  0.138  0.157  0.832- 184 2.18 189 2.48
  76  0.293  0.337  0.779- 181 2.43 208 2.47 184 2.67
  77  0.091  0.868  0.053- 155 2.06 201 2.17 178 2.39
  78  0.209  0.461  0.950- 181 2.26 160 2.29 205 2.43 159 2.52  26 2.57
  79  0.588  0.421  0.404- 132 2.29 138 2.56 130 2.60 190 2.65
  80  0.514  0.573  0.126- 177 2.30 165 2.44 158 2.50
  81  0.711  0.234  0.305- 148 2.25 161 2.50 132 2.51 147 2.56 105 2.75
  82  0.526  0.599  0.299- 130 2.53  83 2.55 157 2.58 120 2.59
  83  0.432  0.711  0.239- 177 2.09 170 2.37 157 2.43 171 2.47  82 2.55 111 2.72
  84  0.774  0.426  0.350- 164 2.32 129 2.39 130 2.47
  85  0.830  0.048  0.275- 207 2.23 161 2.39 153 2.58
  86  0.501  0.866  0.127- 193 2.35 191 2.39
  87  0.645  0.679  0.406- 120 2.27 118 2.35   5 2.59
  88  0.696  0.932  0.330- 114 2.37 191 2.38 147 2.54
  89  0.465  0.023  0.249- 194 2.08 145 2.43 191 2.52 105 2.66
  90  0.537  0.938  0.384- 145 2.41 114 2.48 191 2.55 171 2.68
  91  0.391  0.227  0.701- 139 2.11 192 2.37 173 2.54 184 2.58
  92  0.832  0.550  0.566- 135 2.18 206 2.25
  93  0.580  0.103  0.724- 192 2.42 175 2.57 150 2.62
  94  0.204  0.196  0.647- 200 2.18 184 2.26
  95  0.586  0.105  0.479- 113 2.43 145 2.45 147 2.55 140 2.58
  96  0.626  0.189  0.855- 183 2.37 175 2.53 173 2.64
  97  0.696  0.923  0.575- 115 1.97 113 2.03 116 2.04 114 2.12
  98  0.627  0.688  0.612- 137 2.05 117 2.10  30 2.71
  99  0.348  0.296  0.228- 124 2.06 122 2.07 121 2.12  32 2.40
 100  0.209  0.960  0.529- 126 1.93 128 2.01 125 2.15 127 2.31
 101  0.936  0.555  0.389- 129 1.93 131 2.21 154 2.58
 102  0.900  0.438  0.731- 134 2.09 133 2.09 135 2.18  38 2.64
 103  0.526  0.322  0.569- 140 1.95  40 2.02 138 2.08 139 2.16
 104  0.099  0.603  0.517- 143 2.07 131 2.16 141 2.18  18 2.78
 105  0.607  0.108  0.257- 147 2.03 148 2.17 146 2.33  89 2.66  81 2.75
 106  0.789  0.005  0.850- 152 1.94 150 1.96 151 2.07 149 2.17
 107  0.907  0.847  0.118- 156 1.93 155 2.10 153 2.10   4 2.46  69 2.47
 108  0.339  0.526  0.050- 160 1.95 158 2.09 159 2.36  54 2.72
 109  0.843  0.261  0.187- 164 1.85 161 1.93 163 2.00 162 2.15
 110  0.668  0.470  0.984- 167 1.95 168 1.98 165 2.04 166 2.05
 111  0.271  0.661  0.248- 170 1.93 169 2.05 157 2.07 172 2.31  83 2.72
 112  0.508  0.417  0.848- 176 1.95 166 2.20 173 2.35  25 2.58
 113  0.697  0.049  0.564-  97 2.03  37 2.42  95 2.43  72 2.60
 114  0.657  0.880  0.459-  97 2.12  88 2.37  90 2.48  14 2.67
 115  0.606  0.879  0.645-  97 1.97 119 2.09  14 2.47
 116  0.800  0.873  0.627-  97 2.04  68 2.66  15 2.68
 117  0.685  0.676  0.726-  98 2.10  17 2.37  30 2.58
 118  0.715  0.740  0.295-   1 2.10   5 2.23  71 2.31  87 2.35  55 2.48   3 2.59
 119  0.505  0.959  0.630- 115 2.09  63 2.26  61 2.46  47 2.67
 120  0.506  0.692  0.427- 171 2.08  87 2.27  82 2.59  14 2.61
 121  0.421  0.398  0.187-  99 2.12 190 2.14  54 2.53  34 2.53
 122  0.341  0.287  0.354-  99 2.07  49 2.30  43 2.41  51 2.67
 123  0.124  0.136  0.264-  50 2.37  36 2.37  51 2.45   9 2.64
 124  0.237  0.342  0.184-  99 2.06  51 2.47  54 2.48  31 2.67
 125  0.245  0.967  0.404- 100 2.15   9 2.37  12 2.41  45 2.61
 126  0.280  0.044  0.577- 100 1.93  47 2.49  44 2.63
 127  0.277  0.838  0.562-  63 2.29 100 2.31  12 2.32
 128  0.084  0.954  0.527- 100 2.01  67 2.36
 129  0.893  0.453  0.434- 101 1.93  48 2.19  84 2.39
 130  0.664  0.522  0.306-  55 2.42  84 2.47  82 2.53   3 2.57  79 2.60 190 2.72
 131  0.070  0.589  0.389- 104 2.16 101 2.21  53 2.42  58 2.49
 132  0.677  0.314  0.432- 140 2.14  79 2.29  81 2.51
 133  0.870  0.411  0.852- 102 2.09  42 2.27  20 2.32  73 2.33  24 2.67
 134  0.028  0.440  0.758- 102 2.09  26 2.37  29 2.40  73 2.48  21 2.53
 135  0.865  0.563  0.695-  92 2.18 102 2.18  24 2.58  23 2.67
 136  0.675  0.485  0.551- 174 2.05 137 2.22
 137  0.576  0.575  0.582-  98 2.05 136 2.22
 138  0.477  0.429  0.516- 103 2.08  49 2.55  79 2.56  13 2.64
 139  0.424  0.235  0.577- 192 1.97  91 2.11 103 2.16
 140  0.561  0.264  0.471- 103 1.95 132 2.14  43 2.44  95 2.58
 141  0.032  0.708  0.568- 104 2.18  18 2.29  70 2.31  67 2.59
 142  0.349  0.645  0.582- 179 2.00  16 2.36  13 2.57
 143  0.055  0.496  0.571- 104 2.07  60 2.45  21 2.58
 144  0.168  0.720  0.771-  27 2.23  18 2.35  64 2.36  11 2.38  66 2.38  65 2.61
 145  0.469  0.071  0.389-  47 2.31  43 2.38  90 2.41  89 2.43  45 2.44  95 2.45
 146  0.696  0.103  0.145- 162 2.01 105 2.33
 147  0.680  0.087  0.355- 105 2.03  88 2.54  95 2.55  81 2.56
 148  0.586  0.240  0.242- 105 2.17  81 2.25  35 2.58  43 2.68
 149  0.748  0.098  0.936- 106 2.17  39 2.50
 150  0.683  0.996  0.790- 106 1.96  15 2.36  72 2.50  93 2.62  39 2.63
 151  0.793  0.887  0.900- 106 2.07   4 2.24  15 2.51
 152  0.880  0.035  0.778- 106 1.94  41 2.36
 153  0.826  0.941  0.159- 107 2.10   4 2.26  85 2.58   1 2.66
 154  0.917  0.580  0.235- 186 2.18  55 2.36 101 2.58
 155  0.972  0.911  0.027-  77 2.06 107 2.10   4 2.29  19 2.49
 156  0.839  0.769  0.059- 107 1.93  59 2.61
 157  0.366  0.583  0.283- 111 2.07  54 2.38  83 2.43  82 2.58
 158  0.447  0.564  0.989- 108 2.09  80 2.50  25 2.58  28 2.61
 159  0.242  0.611  0.982- 108 2.36  10 2.44  78 2.52
 160  0.332  0.415  0.005- 108 1.95  78 2.29  34 2.35  25 2.47  31 2.69
 161  0.859  0.194  0.282- 109 1.93  50 2.28  85 2.39  81 2.50
 162  0.741  0.215  0.114- 146 2.01 109 2.15
 163  0.951  0.261  0.126- 109 2.00  52 2.48  50 2.51  36 2.56
 164  0.817  0.364  0.229- 109 1.85  84 2.32  52 2.43  57 2.53
 165  0.648  0.504  0.102- 110 2.04  35 2.42  80 2.44   3 2.52  57 2.57
 166  0.594  0.374  0.944- 110 2.05 112 2.20
 167  0.771  0.406  0.994- 110 1.95  57 2.44  42 2.54  20 2.64
 168  0.715  0.564  0.920- 110 1.98  24 2.32  17 2.63
 169  0.169  0.589  0.220- 111 2.05  53 2.42  56 2.43  54 2.59  58 2.62
 170  0.303  0.759  0.188- 111 1.93  83 2.37  10 2.50   8 2.62
 171  0.457  0.793  0.364- 120 2.08   5 2.29  83 2.47  12 2.48  90 2.68
 172  0.244  0.709  0.378-  16 2.21 111 2.31
 173  0.504  0.281  0.796-  40 2.20 112 2.35  91 2.54  96 2.64
 174  0.708  0.417  0.651- 136 2.05  38 2.46  17 2.64
 175  0.506  0.088  0.862-  61 2.42  96 2.53  33 2.53  93 2.57  74 2.63  39 2.64
 176  0.557  0.478  0.757- 112 1.95  17 2.51  30 2.64
 177  0.542  0.705  0.171-  83 2.09   3 2.28  80 2.30   5 2.41
 178  0.228  0.896  0.002-  62 2.33  77 2.39  65 2.49   7 2.55  10 2.65
 179  0.431  0.726  0.630- 142 2.00  14 2.59  63 2.59
 180  0.973  0.612  0.918-  59 2.17  26 2.46  11 2.47  24 2.48  20 2.49   6 2.49
 181  0.232  0.470  0.815-  27 2.23  78 2.26  25 2.39  21 2.42  76 2.43
 182  0.379  0.182  0.001-  33 2.26  74 2.27  31 2.28  32 2.44  34 2.55
 183  0.725  0.234  0.758-  72 2.26  42 2.32  96 2.37  38 2.39  41 2.52
 184  0.258  0.175  0.773-  75 2.18  94 2.26  74 2.35  91 2.58  76 2.67
 185  0.059  0.351  0.340-  48 2.32  60 2.32  53 2.43  51 2.45  52 2.66
 186  0.965  0.517  0.127- 154 2.18  52 2.49  56 2.63  57 2.67
 187  0.336  0.914  0.786-  62 2.12  44 2.18  61 2.35  65 2.57  63 2.61  66 2.66
 188  0.923  0.818  0.403-  67 2.16  68 2.16  71 2.39  70 2.48  69 2.54
 189  0.002  0.216  0.788-  73 2.23  41 2.37  75 2.48  29 2.52
 190  0.529  0.435  0.254-  35 2.11 121 2.14  79 2.65 130 2.72
 191  0.583  0.921  0.236-  88 2.38  86 2.39  89 2.52  90 2.55   5 2.56
 192  0.474  0.133  0.623- 139 1.97  91 2.37  93 2.42
 193  0.532  0.937  0.006-  39 2.13  86 2.35  22 2.39  33 2.43
 194  0.371  0.013  0.162-  89 2.08  32 2.60
 195  0.246  0.453  0.433-  49 2.33  60 2.37
 196  0.532  0.765  0.893-  28 1.97  22 2.00   2 2.41
 197  0.382  0.637  0.790-  66 2.33  27 2.39  28 2.42  30 2.51
 198  0.148  0.165  0.997-  36 2.45   7 2.54
 199  0.878  0.214  0.551-  46 2.19  37 2.35
 200  0.102  0.251  0.579-  29 2.10  94 2.18  46 2.40
 201  0.088  0.734  0.066-  77 2.17  10 2.23  59 2.43  56 2.53
 202  0.079  0.854  0.275-   8 2.10  58 2.38
 203  0.105  0.946  0.775-  64 1.81
 204  0.948  0.798  0.770-  64 2.35   6 2.44  19 2.52
 205  0.065  0.423  0.974-  26 2.20  78 2.43  20 2.52
 206  0.779  0.664  0.508-  92 2.25  70 2.25  71 2.31
 207  0.895  0.021  0.393-  85 2.23  68 2.41  37 2.48
 208  0.275  0.379  0.636-  13 2.27  21 2.41  76 2.47
 

IMPORTANT INFORMATION: All symmetrisations will be switched off!
NOSYMM: (Re-)initialisation of all symmetry stuff for point group C_1.

 
 
 KPOINTS: Regular mesh centered at Gamma          

Automatic generation of k-mesh.
Space group operators:
 irot       det(A)        alpha          n_x          n_y          n_z        tau_x        tau_y        tau_z
    1     1.000000     0.000001     1.000000     0.000000     0.000000     0.000000     0.000000     0.000000
 
 Subroutine IBZKPT returns following result:
 ===========================================
 
 Found      1 irreducible k-points:
 
 Following reciprocal coordinates:
            Coordinates               Weight
  0.000000  0.000000  0.000000      1.000000
 
 Following cartesian coordinates:
            Coordinates               Weight
  0.000000  0.000000  0.000000      1.000000
 


--------------------------------------------------------------------------------------------------------




 Dimension of arrays:
   k-points           NKPTS =      1   k-points in BZ     NKDIM =      1   number of bands    NBANDS=    592
   number of dos      NEDOS =    301   number of ions     NIONS =    208
   non local maximal  LDIM  =      4   non local SUM 2l+1 LMDIM =      8
   total plane-waves  NPLWV = 729000
   max r-space proj   IRMAX =      1   max aug-charges    IRDMAX=   5618
   dimension x,y,z NGX =    90 NGY =   90 NGZ =   90
   dimension x,y,z NGXF=   180 NGYF=  180 NGZF=  180
   support grid    NGXF=   180 NGYF=  180 NGZF=  180
   ions per type =              96  16  80  16
   NGX,Y,Z   is equivalent  to a cutoff of   9.34,  9.29,  9.11 a.u.
   NGXF,Y,Z  is equivalent  to a cutoff of  18.67, 18.59, 18.22 a.u.

 SYSTEM =  LPSC                                    
 POSCAR =  New POSCAR file                         

 Startparameter for this run:
   NWRITE =      2    write-flag & timer
   PREC   = normal    normal or accurate (medium, high low for compatibility)
   ISTART =      0    job   : 0-new  1-cont  2-samecut
   ICHARG =      2    charge: 1-file 2-atom 10-const
   ISPIN  =      1    spin polarized calculation?
   LNONCOLLINEAR =      F non collinear calculations
   LSORBIT =      F    spin-orbit coupling
   INIWAV =      1    electr: 0-lowe 1-rand  2-diag
   LASPH  =      F    aspherical Exc in radial PAW
   METAGGA=      F    non-selfconsistent MetaGGA calc.

 Electronic Relaxation 1
   ENCUT  =  500.0 eV  36.75 Ry    6.06 a.u.  29.22 29.35 29.95*2*pi/ulx,y,z
   ENINI  =  500.0     initial cutoff
   ENAUG  =  628.9 eV  augmentation charge cutoff
   NELM   =    100;   NELMIN=  2; NELMDL=-12     # of ELM steps 
   EDIFF  = 0.1E-05   stopping-criterion for ELM
   LREAL  =      F    real-space projection
   NLSPLINE    = F    spline interpolate recip. space projectors
   LCOMPAT=      F    compatible to vasp.4.4
   GGA_COMPAT  = T    GGA compatible to vasp.4.4-vasp.4.6
   LMAXPAW     = -100 max onsite density
   LMAXMIX     =    2 max onsite mixed and CHGCAR
   VOSKOWN=      0    Vosko Wilk Nusair interpolation
   ROPT   =    0.00000   0.00000   0.00000   0.00000
 Ionic relaxation
   EDIFFG = -.1E-01   stopping-criterion for IOM
   NSW    =      1    number of steps for IOM
   NBLOCK =      1;   KBLOCK =      1    inner block; outer block 
   IBRION =      2    ionic relax: 0-MD 1-quasi-New 2-CG
   NFREE  =      1    steps in history (QN), initial steepest desc. (CG)
   ISIF   =      2    stress and relaxation
   IWAVPR =     11    prediction:  0-non 1-charg 2-wave 3-comb
   ISYM   =      0    0-nonsym 1-usesym 2-fastsym
   LCORR  =      T    Harris-Foulkes like correction to forces

   POTIM  = 0.5000    time-step for ionic-motion
   TEIN   =    0.0    initial temperature
   TEBEG  =    0.0;   TEEND  =   0.0 temperature during run
   SMASS  =  -3.00    Nose mass-parameter (am)
   estimated Nose-frequenzy (Omega)   =  0.10E-29 period in steps =****** mass=  -0.587E-26a.u.
   SCALEE = 1.0000    scale energy and forces
   NPACO  =    256;   APACO  = 16.0  distance and # of slots for P.C.
   PSTRESS=    0.0 pullay stress

  Mass of Ions in am
   POMASS =   7.01 30.97 32.07 35.45
  Ionic Valenz
   ZVAL   =   3.00  5.00  6.00  7.00
  Atomic Wigner-Seitz radii
   RWIGS  =  -1.00 -1.00 -1.00 -1.00
  virtual crystal weights 
   VCA    =   1.00  1.00  1.00  1.00
   NELECT =     960.0000    total number of electrons
   NUPDOWN=      -1.0000    fix difference up-down

 DOS related values:
   EMIN   =  10.00;   EMAX   =-10.00  energy-range for DOS
   EFERMI =   0.00
   ISMEAR =     0;   SIGMA  =   0.05  broadening in eV -4-tet -1-fermi 0-gaus

 Electronic relaxation 2 (details)
   IALGO  =     48    algorithm
   LDIAG  =      T    sub-space diagonalisation (order eigenvalues)
   LSUBROT=      F    optimize rotation matrix (better conditioning)
   TURBO    =      0    0=normal 1=particle mesh
   IRESTART =      0    0=no restart 2=restart with 2 vectors
   NREBOOT  =      0    no. of reboots
   NMIN     =      0    reboot dimension
   EREF     =   0.00    reference energy to select bands
   IMIX   =      4    mixing-type and parameters
     AMIX     =   0.40;   BMIX     =  1.00
     AMIX_MAG =   1.60;   BMIX_MAG =  1.00
     AMIN     =   0.10
     WC   =   100.;   INIMIX=   1;  MIXPRE=   1;  MAXMIX= -45

 Intra band minimization:
   WEIMIN = 0.0010     energy-eigenvalue tresh-hold
   EBREAK =  0.42E-09  absolut break condition
   DEPER  =   0.30     relativ break condition  

   TIME   =   0.40     timestep for ELM

  volume/ion in A,a.u.               =      20.38       137.50
  Fermi-wavevector in a.u.,A,eV,Ry     =   0.997951  1.885854 13.550121  0.995906
  Thomas-Fermi vector in A             =   2.130142
 
 Write flags
   LWAVE        =      F    write WAVECAR
   LDOWNSAMPLE  =      F    k-point downsampling of WAVECAR
   LCHARG       =      F    write CHGCAR
   LVTOT        =      F    write LOCPOT, total local potential
   LVHAR        =      F    write LOCPOT, Hartree potential only
   LELF         =      F    write electronic localiz. function (ELF)
   LORBIT       =     11    0 simple, 1 ext, 2 COOP (PROOUT), +10 PAW based schemes


 Dipole corrections
   LMONO  =      F    monopole corrections only (constant potential shift)
   LDIPOL =      F    correct potential (dipole corrections)
   IDIPOL =      0    1-x, 2-y, 3-z, 4-all directions 
   EPSILON=  1.0000000 bulk dielectric constant

 Exchange correlation treatment:
   GGA     =    --    GGA type
   LEXCH   =     8    internal setting for exchange type
   VOSKOWN=      0    Vosko Wilk Nusair interpolation
   LHFCALC =     F    Hartree Fock is set to
   LHFONE  =     F    Hartree Fock one center treatment
   AEXX    =    0.0000 exact exchange contribution

 Linear response parameters
   LEPSILON=     F    determine dielectric tensor
   LRPA    =     F    only Hartree local field effects (RPA)
   LNABLA  =     F    use nabla operator in PAW spheres
   LVEL    =     F    velocity operator in full k-point grid
   LINTERFAST=   F  fast interpolation
   KINTER  =     0    interpolate to denser k-point grid
   CSHIFT  =0.1000    complex shift for real part using Kramers Kronig
   OMEGAMAX=  -1.0    maximum frequency
   DEG_THRESHOLD= 0.2000000E-02 threshold for treating states as degnerate
   RTIME   =   -0.100 relaxation time in fs
  (WPLASMAI=    0.000 imaginary part of plasma frequency in eV, 0.658/RTIME)
   DFIELD  = 0.0000000 0.0000000 0.0000000 field for delta impulse in time
 
 Orbital magnetization related:
   ORBITALMAG=     F  switch on orbital magnetization
   LCHIMAG   =     F  perturbation theory with respect to B field
   DQ        =  0.001000  dq finite difference perturbation B field
   LLRAUG    =     F  two centre corrections for induced B field



--------------------------------------------------------------------------------------------------------


 conjugate gradient relaxation of ions
 charge density and potential will be updated during run
 non-spin polarized calculation
 RMM-DIIS sequential band-by-band
 perform sub-space diagonalisation
    before iterative eigenvector-optimisation
 modified Broyden-mixing scheme, WC =      100.0
 initial mixing is a Kerker type mixing with AMIX =  0.4000 and BMIX =      1.0000
 Hartree-type preconditioning will be used
 using additional bands          112
 reciprocal scheme for non local part
 use partial core corrections
 calculate Harris-corrections to forces 
   (improved forces if not selfconsistent)
 use gradient corrections 
 use of overlap-Matrix (Vanderbilt PP)
 Gauss-broadening in eV      SIGMA  =   0.05


--------------------------------------------------------------------------------------------------------


  energy-cutoff  :      500.00
  volume of cell :     4238.07
      direct lattice vectors                 reciprocal lattice vectors
    16.026082000  0.000000000  0.000000000     0.062398283  0.000000000  0.000000000
     0.000000000 16.100000000  0.000000000     0.000000000  0.062111801  0.000000000
     0.000000000  0.000000000 16.425367000     0.000000000  0.000000000  0.060881440

  length of vectors
    16.026082000 16.100000000 16.425367000     0.062398283  0.062111801  0.060881440


 
 k-points in units of 2pi/SCALE and weight: Regular mesh centered at Gamma          
   0.00000000  0.00000000  0.00000000       1.000
 
 k-points in reciprocal lattice and weights: Regular mesh centered at Gamma          
   0.00000000  0.00000000  0.00000000       1.000
 
 position of ions in fractional coordinates (direct lattice) 
   0.72594786  0.81262112  0.18930962
   0.57360370  0.67362733  0.00214943
   0.66140308  0.63063975  0.19091385
   0.83221214  0.93659006  0.02164755
   0.58036331  0.77424845  0.29576265
   0.90797614  0.75212422  0.90632983
   0.23767943  0.04654969  0.05030317
   0.21049936  0.85323602  0.28185732
   0.10903850  0.00574216  0.36153530
   0.22648206  0.74120497  0.05624903
   0.10405850  0.68989441  0.89848830
   0.32916592  0.84640373  0.43061138
   0.35924626  0.48894037  0.61185847
   0.52797933  0.80884472  0.53466872
   0.71965812  0.85593789  0.76912741
   0.34361861  0.63790062  0.43853084
   0.70257971  0.53433230  0.76238784
   0.15972026  0.71743478  0.62859478
   0.97449894  0.90877019  0.87542641
   0.91703637  0.47725528  0.96925688
   0.16319023  0.46685528  0.68309585
   0.50852604  0.88483230  0.87140823
   0.01046831  0.62548447  0.74505489
   0.83998073  0.57437888  0.84978314
   0.36601772  0.48657205  0.87622395
   0.07903679  0.51187702  0.87287547
   0.23753154  0.60829565  0.81595133
   0.42743947  0.70506211  0.91394609
   0.06214176  0.31527826  0.68424042
   0.52895773  0.63760870  0.73733512
   0.27224433  0.26388944  0.04433880
   0.35454829  0.17267702  0.14690996
   0.47092296  0.07522484  0.01182202
   0.43256549  0.32083665  0.05340441
   0.63212581  0.38529627  0.19096681
   0.07964205  0.16755466  0.13011277
   0.80487545  0.10963851  0.48054878
   0.81696824  0.31002236  0.66979325
   0.62344932  0.00449304  0.93888313
   0.57232953  0.31096832  0.68318717
   0.86127102  0.17684224  0.81072770
   0.76415433  0.31881677  0.86563058
   0.47268322  0.21596335  0.35870371
   0.25411638  0.00467725  0.73001109
   0.32716169  0.09009441  0.33886244
   0.98513161  0.16858820  0.62124639
   0.41259929  0.01241404  0.50450745
   0.93924392  0.32660248  0.41588842
   0.38097272  0.41852422  0.39319182
   0.99866580  0.21371118  0.26345469
   0.18270467  0.26971118  0.30558708
   0.96584430  0.38800435  0.21016273
   0.13707717  0.47822298  0.31471078
   0.29077662  0.48457950  0.20349134
   0.78976883  0.60530186  0.30265808
   0.11076943  0.57970373  0.08424165
   0.80422651  0.47605590  0.12172574
   0.08462018  0.70709938  0.29279833
   0.95822547  0.65950311  0.04045974
   0.10829908  0.40858323  0.46024360
   0.43627008  0.01485807  0.75256157
   0.33175545  0.94037267  0.91281979
   0.38813978  0.88069565  0.63929774
   0.08677043  0.83937888  0.74726489
   0.21065660  0.84794410  0.85892145
   0.31027359  0.75529814  0.74748406
   0.04118655  0.82918634  0.46453635
   0.87842431  0.90953416  0.48916411
   0.87541047  0.79794410  0.25713946
   0.89637005  0.73744720  0.52949502
   0.78134506  0.77219876  0.41519864
   0.74718200  0.10651801  0.70351548
   0.99163351  0.33252547  0.86040087
   0.37206162  0.18251615  0.86270827
   0.13770615  0.15748696  0.83198141
   0.29283514  0.33667453  0.77922764
   0.09089246  0.86817391  0.05332100
   0.20917152  0.46123975  0.94976264
   0.58771944  0.42119255  0.40425094
   0.51423361  0.57253354  0.12626567
   0.71080380  0.23436770  0.30516639
   0.52590708  0.59926770  0.29916592
   0.43221231  0.71099379  0.23861750
   0.77427533  0.42560559  0.34986798
   0.83019044  0.04842491  0.27538076
   0.50096150  0.86622360  0.12690675
   0.64536672  0.67947826  0.40600371
   0.69565350  0.93150311  0.32978198
   0.46514176  0.02288435  0.24892229
   0.53688731  0.93768323  0.38365048
   0.39149494  0.22674037  0.70132375
   0.83224334  0.54975590  0.56642631
   0.58014741  0.10281988  0.72394121
   0.20410915  0.19589317  0.64728538
   0.58635604  0.10537702  0.47902126
   0.62646004  0.18893540  0.85537206
   0.69567222  0.92332298  0.57500207
   0.62688435  0.68767081  0.61236379
   0.34820613  0.29603478  0.22836019
   0.20927199  0.95979503  0.52940735
   0.93608656  0.55539876  0.38928141
   0.90015139  0.43760621  0.73062599
   0.52589086  0.32224099  0.56916354
   0.09915025  0.60327764  0.51651449
   0.60663923  0.10828571  0.25678391
   0.78928836  0.00465233  0.84981967
   0.90740831  0.84689441  0.11836752
   0.33896370  0.52621739  0.05012479
   0.84268881  0.26105714  0.18684027
   0.66772403  0.47034969  0.98377102
   0.27057081  0.66142857  0.24824346
   0.50829829  0.41704720  0.84837069
   0.69652083  0.04886528  0.56425589
   0.65705392  0.87965217  0.45941500
   0.60608887  0.87885714  0.64457007
   0.79986487  0.87279503  0.62688401
   0.68505203  0.67600000  0.72623644
   0.71492833  0.73988199  0.29464182
   0.50458746  0.95907453  0.62981241
   0.50597707  0.69154658  0.42690857
   0.42104177  0.39794410  0.18703144
   0.34065656  0.28718571  0.35402131
   0.12424060  0.13557143  0.26438861
   0.23695498  0.34184410  0.18374567
   0.24474291  0.96680124  0.40362325
   0.27993804  0.04399087  0.57659290
   0.27742214  0.83756522  0.56234969
   0.08387265  0.95411180  0.52655201
   0.89289447  0.45309441  0.43373947
   0.66380541  0.52245404  0.30603213
   0.06958345  0.58895528  0.38908537
   0.67737704  0.31428509  0.43190268
   0.87025013  0.41136832  0.85206620
   0.02767701  0.43962671  0.75773649
   0.86473413  0.56335217  0.69477900
   0.67471263  0.48454658  0.55095329
   0.57580387  0.57538323  0.58170085
   0.47734125  0.42897143  0.51645908
   0.42376671  0.23499317  0.57730278
   0.56065481  0.26363230  0.47075600
   0.03173034  0.70826087  0.56787103
   0.34905288  0.64538509  0.58201318
   0.05475555  0.49581553  0.57063443
   0.16805854  0.71968323  0.77126435
   0.46947283  0.07129130  0.38878218
   0.69611525  0.10265342  0.14486556
   0.67999777  0.08658012  0.35496315
   0.58630862  0.24048137  0.24168349
   0.74768119  0.09820373  0.93625914
   0.68332360  0.99604348  0.79026545
   0.79348153  0.88694410  0.90019906
   0.88002794  0.03526248  0.77763255
   0.82644654  0.94070186  0.15929872
   0.91734212  0.57951925  0.23501819
   0.97245228  0.91097516  0.02725869
   0.83918827  0.76898758  0.05865951
   0.36646636  0.58275528  0.28291301
   0.44696701  0.56354534  0.98909205
   0.24161614  0.61092298  0.98161581
   0.33202126  0.41482919  0.00474726
   0.85941155  0.19358820  0.28236203
   0.74104825  0.21521553  0.11411313
   0.95070648  0.26144472  0.12579262
   0.81731143  0.36418882  0.22919792
   0.64768794  0.50385839  0.10199163
   0.59434115  0.37434969  0.94418590
   0.77063751  0.40640497  0.99390169
   0.71467873  0.56365031  0.91962024
   0.16905005  0.58904161  0.22019538
   0.30292869  0.75939130  0.18792335
   0.45678351  0.79267702  0.36398882
   0.24396356  0.70944099  0.37803904
   0.50445518  0.28105093  0.79598221
   0.70847011  0.41657950  0.65099306
   0.50561017  0.08796708  0.86179505
   0.55679673  0.47751553  0.75698156
   0.54211254  0.70497516  0.17092830
   0.22775997  0.89604969  0.00221904
   0.43086264  0.72559627  0.63032382
   0.97273931  0.61170062  0.91782424
   0.23194315  0.47002050  0.81450235
   0.37945831  0.18174410  0.00050372
   0.72544868  0.23410621  0.75751732
   0.25802002  0.17493602  0.77290815
   0.05860478  0.35132112  0.33984629
   0.96534512  0.51692174  0.12674785
   0.33638290  0.91383230  0.78644209
   0.92277077  0.81798137  0.40328657
   0.00197482  0.21618385  0.78785454
   0.52911872  0.43474410  0.25407773
   0.58339961  0.92080745  0.23581939
   0.47387378  0.13348075  0.62331027
   0.53167393  0.93718012  0.00568249
   0.37130785  0.01275969  0.16210110
   0.24619492  0.45346770  0.43333826
   0.53233410  0.76496894  0.89294200
   0.38178265  0.63693789  0.79028980
   0.14834443  0.16459130  0.99676312
   0.87800000  0.21380559  0.55113837
   0.10181653  0.25149689  0.57940867
   0.08769954  0.73386335  0.06587554
   0.07944175  0.85384472  0.27538380
   0.10533641  0.94642236  0.77472850
   0.94820431  0.79771429  0.77030851
   0.06477004  0.42341801  0.97377428
   0.77876177  0.66411180  0.50778591
   0.89457922  0.02141795  0.39283871
   0.27457428  0.37869814  0.63569356
 
 position of ions in cartesian coordinates  (Angst):
  11.63410000 13.08320000  3.10948000
   9.19262000 10.84540000  0.03530510
  10.59970000 10.15330000  3.13583000
  13.33710000 15.07910000  0.35556900
   9.30095000 12.46540000  4.85801000
  14.55130000 12.10920000 14.88680000
   3.80907000  0.74945000  0.82624800
   3.37348000 13.73710000  4.62961000
   1.74746000  0.09244870  5.93835000
   3.62962000 11.93340000  0.92391100
   1.66765000 11.10730000 14.75800000
   5.27524000 13.62710000  7.07295000
   5.75731000  7.87194000 10.05000000
   8.46144000 13.02240000  8.78213000
  11.53330000 13.78060000 12.63320000
   5.50686000 10.27020000  7.20303000
  11.25960000  8.60275000 12.52250000
   2.55969000 11.55070000 10.32490000
  15.61740000 14.63120000 14.37920000
  14.69650000  7.68381000 15.92040000
   2.61530000  7.51637000 11.22010000
   8.14968000 14.24580000 14.31320000
   0.16776600 10.07030000 12.23780000
  13.46160000  9.24750000 13.95800000
   5.86583000  7.83381000 14.39230000
   1.26665000  8.24122000 14.33730000
   3.80670000  9.79356000 13.40230000
   6.85018000 11.35150000 15.01190000
   0.99588900  5.07598000 11.23890000
   8.47712000 10.26550000 12.11100000
   4.36301000  4.24862000  0.72828100
   5.68202000  2.78010000  2.41305000
   7.54705000  1.21112000  0.19418100
   6.93233000  5.16547000  0.87718700
  10.13050000  6.20327000  3.13670000
   1.27635000  2.69763000  2.13715000
  12.89900000  1.76518000  7.89319000
  13.09280000  4.99136000 11.00160000
   9.99145000  0.07233800 15.42150000
   9.17220000  5.00659000 11.22160000
  13.80280000  2.84716000 13.31650000
  12.24640000  5.13295000 14.21830000
   7.57526000  3.47701000  5.89184000
   4.07249000  0.07530370 11.99070000
   5.24312000  1.45052000  5.56594000
  15.78780000  2.71427000 10.20420000
   6.61235000  0.19986600  8.28672000
  15.05240000  5.25830000  6.83112000
   6.10550000  6.73824000  6.45832000
  16.00470000  3.44075000  4.32734000
   2.92804000  4.34235000  5.01938000
  15.47870000  6.24687000  3.45200000
   2.19681000  7.69939000  5.16924000
   4.66001000  7.80173000  3.34242000
  12.65690000  9.74536000  4.97127000
   1.77520000  9.33323000  1.38370000
  12.88860000  7.66450000  1.99939000
   1.35613000 11.38430000  4.80932000
  15.35660000 10.61800000  0.66456600
   1.73561000  6.57819000  7.55967000
   6.99170000  0.23921500 12.36110000
   5.31674000 15.14000000 14.99340000
   6.22036000 14.17920000 10.50070000
   1.39059000 13.51400000 12.27410000
   3.37600000 13.65190000 14.10810000
   4.97247000 12.16030000 12.27770000
   0.66005900 13.34990000  7.63018000
  14.07770000 14.64350000  8.03470000
  14.02940000 12.84690000  4.22361000
  14.36530000 11.87290000  8.69715000
  12.52190000 12.43240000  6.81979000
  11.97440000  1.71494000 11.55550000
  15.89200000  5.35366000 14.13240000
   5.96269000  2.93851000 14.17030000
   2.20689000  2.53554000 13.66560000
   4.69300000  5.42046000 12.79910000
   1.45665000 13.97760000  0.87581700
   3.35220000  7.42596000 15.60020000
   9.41884000  6.78120000  6.63997000
   8.24115000  9.21779000  2.07396000
  11.39140000  3.77332000  5.01247000
   8.42823000  9.64821000  4.91391000
   6.92667000 11.44700000  3.91938000
  12.40860000  6.85225000  5.74671000
  13.30470000  0.77964100  4.52323000
   8.02845000 13.94620000  2.08449000
  10.34270000 10.93960000  6.66876000
  11.14860000 14.99720000  5.41679000
   7.45440000  0.36843800  4.08864000
   8.60420000 15.09670000  6.30160000
   6.27413000  3.65052000 11.51950000
  13.33760000  8.85107000  9.30376000
   9.29749000  1.65540000 11.89100000
   3.27107000  3.15388000 10.63190000
   9.39699000  1.69657000  7.86810000
  10.03970000  3.04186000 14.04980000
  11.14890000 14.86550000  9.44462000
  10.04650000 11.07150000 10.05830000
   5.58038000  4.76616000  3.75090000
   3.35381000 15.45270000  8.69571000
  15.00180000  8.94192000  6.39409000
  14.42590000  7.04546000 12.00080000
   8.42797000  5.18808000  9.34872000
   1.58899000  9.71277000  8.48394000
   9.72205000  1.74340000  4.21777000
  12.64920000  0.07490250 13.95860000
  14.54220000 13.63500000  1.94423000
   5.43226000  8.47210000  0.82331800
  13.50500000  4.20302000  3.06892000
  10.70100000  7.57263000 16.15880000
   4.33619000 10.64900000  4.07749000
   8.14603000  6.71446000 13.93480000
  11.16250000  0.78673100  9.26811000
  10.53000000 14.16240000  7.54606000
   9.71323000 14.14960000 10.58730000
  12.81870000 14.05200000 10.29680000
  10.97870000 10.88360000 11.92870000
  11.45750000 11.91210000  4.83960000
   8.08656000 15.44110000 10.34490000
   8.10883000 11.13390000  7.01213000
   6.74765000  6.40690000  3.07206000
   5.45939000  4.62369000  5.81493000
   1.99109000  2.18270000  4.34268000
   3.79746000  5.50369000  3.01809000
   3.92227000 15.56550000  6.62966000
   4.48631000  0.70825300  9.47075000
   4.44599000 13.48480000  9.23680000
   1.34415000 15.36120000  8.64881000
  14.30960000  7.29482000  7.12433000
  10.63820000  8.41151000  5.02669000
   1.11515000  9.48218000  6.39087000
  10.85570000  5.05999000  7.09416000
  13.94670000  6.62303000 13.99550000
   0.44355400  7.07799000 12.44610000
  13.85830000  9.06997000 11.41200000
  10.81300000  7.80120000  9.04961000
   9.22788000  9.26367000  9.55465000
   7.64991000  6.90644000  8.48303000
   6.79132000  3.78339000  9.48241000
   8.98510000  4.24448000  7.73234000
   0.50851300 11.40300000  9.32749000
   5.59395000 10.39070000  9.55978000
   0.87751700  7.98263000  9.37288000
   2.69332000 11.58690000 12.66830000
   7.52381000  1.14779000  6.38589000
  11.15600000  1.65272000  2.37947000
  10.89770000  1.39394000  5.83040000
   9.39623000  3.87175000  3.96974000
  11.98240000  1.58108000 15.37840000
  10.95100000 16.03630000 12.98040000
  12.71640000 14.27980000 14.78610000
  14.10340000  0.56772600 12.77290000
  13.24470000 15.14530000  2.61654000
  14.70140000  9.33026000  3.86026000
  15.58460000 14.66670000  0.44773400
  13.44890000 12.38070000  0.96350400
   5.87302000  9.38236000  4.64695000
   7.16313000  9.07308000 16.24620000
   3.87216000  9.83586000 16.12340000
   5.32100000  6.67875000  0.07797550
  13.77300000  3.11677000  4.63790000
  11.87610000  3.46497000  1.87435000
  15.23610000  4.20926000  2.06619000
  13.09830000  5.86344000  3.76466000
  10.37990000  8.11212000  1.67525000
   9.52496000  6.02703000 15.50860000
  12.35030000  6.54312000 16.32520000
  11.45350000  9.07477000 15.10510000
   2.70921000  9.48357000  3.61679000
   4.85476000 12.22620000  3.08671000
   7.32045000 12.76210000  5.97865000
   3.90978000 11.42200000  6.20943000
   8.08444000  4.52492000 13.07430000
  11.35400000  6.70693000 10.69280000
   8.10295000  1.41627000 14.15530000
   8.92327000  7.68800000 12.43370000
   8.68794000 11.35010000  2.80756000
   3.65010000 14.42640000  0.03644850
   6.90504000 11.68210000 10.35330000
  15.58920000  9.84838000 15.07560000
   3.71714000  7.56733000 13.37850000
   6.08123000  2.92608000  0.00827376
  11.62610000  3.76911000 12.44250000
   4.13505000  2.81647000 12.69530000
   0.93920500  5.65627000  5.58210000
  15.47070000  8.32244000  2.08188000
   5.39090000 14.71270000 12.91760000
  14.78840000 13.16950000  6.62413000
   0.03164870  3.48056000 12.94080000
   8.47970000  6.99938000  4.17332000
   9.34961000 14.82500000  3.87342000
   7.59434000  2.14904000 10.23810000
   8.52065000 15.08860000  0.09333700
   5.95061000  0.20543100  2.66257000
   3.94554000  7.30083000  7.11774000
   8.53123000 12.31600000 14.66690000
   6.11848000 10.25470000 12.98080000
   2.37738000  2.64992000 16.37220000
  14.07090000  3.44227000  9.05265000
   1.63172000  4.04910000  9.51700000
   1.40548000 11.81520000  1.08203000
   1.27314000 13.74690000  4.52328000
   1.68813000 15.23740000 12.72520000
  15.19600000 12.84320000 12.65260000
   1.03801000  6.81703000 15.99460000
  12.48050000 10.69220000  8.34057000
  14.33660000  0.34482900  6.45252000
   4.40035000  6.09704000 10.44150000
 


--------------------------------------------------------------------------------------------------------


 k-point  1 :   0.0000 0.0000 0.0000  plane waves:  107615

 maximum and minimum number of plane-waves per node :     13456    13445

 maximum number of plane-waves:    107615
 maximum index in each direction: 
   IXMAX=   29   IYMAX=   29   IZMAX=   29
   IXMIN=  -29   IYMIN=  -29   IZMIN=  -29


 parallel 3D FFT for wavefunctions:
    minimum data exchange during FFTs selected (reduces bandwidth)
 parallel 3D FFT for charge:
    minimum data exchange during FFTs selected (reduces bandwidth)


 total amount of memory used by VASP MPI-rank0   111673. kBytes
=======================================================================

   base      :      30000. kBytes
   nonl-proj :      48226. kBytes
   fftplans  :       6264. kBytes
   grid      :      10964. kBytes
   one-center:         79. kBytes
   wavefun   :      16140. kBytes
 
     INWAV:  cpu time    0.0000: real time    0.0000
 Broyden mixing: mesh for mixing (old mesh)
   NGX = 59   NGY = 59   NGZ = 59
  (NGX  =180   NGY  =180   NGZ  =180)
  gives a total of 205379 points

 initial charge density was supplied:
 charge density of overlapping atoms calculated
 number of electron     960.0000000 magnetization 
 keeping initial charge density in first step


--------------------------------------------------------------------------------------------------------


 Maximum index for augmentation-charges          364 (set IRDMAX)


--------------------------------------------------------------------------------------------------------


 First call to EWALD:  gamma=   0.110
 Maximum number of real-space cells 3x 3x 3
 Maximum number of reciprocal cells 3x 3x 3

    FEWALD:  cpu time    0.0072: real time    0.0072


--------------------------------------- Iteration      1(   1)  ---------------------------------------


    POTLOK:  cpu time    0.1145: real time    0.1155
    SETDIJ:  cpu time    0.0077: real time    0.0079
    EDDIAG:  cpu time    0.9663: real time    0.9706
  RMM-DIIS:  cpu time    5.4432: real time    5.4470
    ORTHCH:  cpu time    0.2636: real time    0.2644
       DOS:  cpu time    0.0008: real time    0.0008
    --------------------------------------------
      LOOP:  cpu time    6.7961: real time    6.8062

 eigenvalue-minimisations  :   592
 total energy-change (2. order) :-0.3797987E+04  (-0.4700242E+05)
 number of electron     960.0000000 magnetization 
 augmentation part      960.0000000 magnetization 

 Free energy of the ion-electron system (eV)
  ---------------------------------------------------
  alpha Z        PSCENC =       804.77846877
  Ewald energy   TEWEN  =    -29713.72931895
  -Hartree energ DENC   =    -12516.16814540
  -exchange      EXHF   =         0.00000000
  -V(xc)+E(xc)   XCENC  =      2535.90994628
  PAW double counting   =     32496.41603574   -33591.34861692
  entropy T*S    EENTRO =        -0.05920281
  eigenvalues    EBANDS =    -14797.77150406
  atomic energy  EATOM  =     50983.98519967
  Solvation  Ediel_sol  =         0.00000000
  ---------------------------------------------------
  free energy    TOTEN  =     -3797.98713768 eV

  energy without entropy =    -3797.92793487  energy(sigma->0) =    -3797.95753628


--------------------------------------------------------------------------------------------------------




--------------------------------------- Iteration      1(   2)  ---------------------------------------


    EDDIAG:  cpu time    0.9577: real time    0.9601
  RMM-DIIS:  cpu time    5.4957: real time    5.4986
    ORTHCH:  cpu time    0.2655: real time    0.2655
       DOS:  cpu time    0.0007: real time    0.0007
    --------------------------------------------
      LOOP:  cpu time    6.7196: real time    6.7250

 eigenvalue-minimisations  :   592
 total energy-change (2. order) : 0.6186162E+04  (-0.7358871E+04)
 number of electron     960.0000000 magnetization 
 augmentation part      960.0000000 magnetization 

 Free energy of the ion-electron system (eV)
  ---------------------------------------------------
  alpha Z        PSCENC =       804.77846877
  Ewald energy   TEWEN  =    -29713.72931895
  -Hartree energ DENC   =    -12516.16814540
  -exchange      EXHF   =         0.00000000
  -V(xc)+E(xc)   XCENC  =      2535.90994628
  PAW double counting   =     32496.41603574   -33591.34861692
  entropy T*S    EENTRO =        -0.05600209
  eigenvalues    EBANDS =     -8611.61247473
  atomic energy  EATOM  =     50983.98519967
  Solvation  Ediel_sol  =         0.00000000
  ---------------------------------------------------
  free energy    TOTEN  =      2388.17509237 eV

  energy without entropy =     2388.23109446  energy(sigma->0) =     2388.20309341


--------------------------------------------------------------------------------------------------------




--------------------------------------- Iteration      1(   3)  ---------------------------------------


    EDDIAG:  cpu time    0.9520: real time    0.9531
  RMM-DIIS:  cpu time    5.4521: real time    5.4565
    ORTHCH:  cpu time    0.2868: real time    0.2874
       DOS:  cpu time    0.0008: real time    0.0008
    --------------------------------------------
      LOOP:  cpu time    6.6916: real time    6.6978

 eigenvalue-minimisations  :   592
 total energy-change (2. order) :-0.1596426E+04  (-0.2339518E+04)
 number of electron     960.0000000 magnetization 
 augmentation part      960.0000000 magnetization 

 Free energy of the ion-electron system (eV)
  ---------------------------------------------------
  alpha Z        PSCENC =       804.77846877
  Ewald energy   TEWEN  =    -29713.72931895
  -Hartree energ DENC   =    -12516.16814540
  -exchange      EXHF   =         0.00000000
  -V(xc)+E(xc)   XCENC  =      2535.90994628
  PAW double counting   =     32496.41603574   -33591.34861692
  entropy T*S    EENTRO =        -0.04980499
  eigenvalues    EBANDS =    -10208.04452688
  atomic energy  EATOM  =     50983.98519967
  Solvation  Ediel_sol  =         0.00000000
  ---------------------------------------------------
  free energy    TOTEN  =       791.74923732 eV

  energy without entropy =      791.79904231  energy(sigma->0) =      791.77413981


--------------------------------------------------------------------------------------------------------




--------------------------------------- Iteration      1(   4)  ---------------------------------------


    EDDIAG:  cpu time    0.9544: real time    0.9573
  RMM-DIIS:  cpu time    5.4680: real time    5.4729
    ORTHCH:  cpu time    0.2635: real time    0.2641
       DOS:  cpu time    0.0006: real time    0.0006
    --------------------------------------------
      LOOP:  cpu time    6.6865: real time    6.6950

 eigenvalue-minimisations  :   592
 total energy-change (2. order) :-0.8302957E+03  (-0.8332780E+03)
 number of electron     960.0000000 magnetization 
 augmentation part      960.0000000 magnetization 

 Free energy of the ion-electron system (eV)
  ---------------------------------------------------
  alpha Z        PSCENC =       804.77846877
  Ewald energy   TEWEN  =    -29713.72931895
  -Hartree energ DENC   =    -12516.16814540
  -exchange      EXHF   =         0.00000000
  -V(xc)+E(xc)   XCENC  =      2535.90994628
  PAW double counting   =     32496.41603574   -33591.34861692
  entropy T*S    EENTRO =        -0.00000281
  eigenvalues    EBANDS =    -11038.39001818
  atomic energy  EATOM  =     50983.98519967
  Solvation  Ediel_sol  =         0.00000000
  ---------------------------------------------------
  free energy    TOTEN  =       -38.54645180 eV

  energy without entropy =      -38.54644899  energy(sigma->0) =      -38.54645039


--------------------------------------------------------------------------------------------------------




--------------------------------------- Iteration      1(   5)  ---------------------------------------


    EDDIAG:  cpu time    0.9604: real time    0.9640
  RMM-DIIS:  cpu time    5.4568: real time    5.4621
    ORTHCH:  cpu time    0.2650: real time    0.2656
       DOS:  cpu time    0.0003: real time    0.0003
    --------------------------------------------
      LOOP:  cpu time    6.6825: real time    6.6920

 eigenvalue-minimisations  :   592
 total energy-change (2. order) :-0.3628330E+03  (-0.3323648E+03)
 number of electron     960.0000000 magnetization 
 augmentation part      960.0000000 magnetization 

 Free energy of the ion-electron system (eV)
  ---------------------------------------------------
  alpha Z        PSCENC =       804.77846877
  Ewald energy   TEWEN  =    -29713.72931895
  -Hartree energ DENC   =    -12516.16814540
  -exchange      EXHF   =         0.00000000
  -V(xc)+E(xc)   XCENC  =      2535.90994628
  PAW double counting   =     32496.41603574   -33591.34861692
  entropy T*S    EENTRO =        -0.00000000
  eigenvalues    EBANDS =    -11401.22305075
  atomic energy  EATOM  =     50983.98519967
  Solvation  Ediel_sol  =         0.00000000
  ---------------------------------------------------
  free energy    TOTEN  =      -401.37948156 eV

  energy without entropy =     -401.37948156  energy(sigma->0) =     -401.37948156


--------------------------------------------------------------------------------------------------------




--------------------------------------- Iteration      1(   6)  ---------------------------------------


    EDDIAG:  cpu time    0.9952: real time    0.9993
  RMM-DIIS:  cpu time    5.4720: real time    5.4878
    ORTHCH:  cpu time    0.2645: real time    0.2648
       DOS:  cpu time    0.0005: real time    0.0005
    --------------------------------------------
      LOOP:  cpu time    6.7322: real time    6.7524

 eigenvalue-minimisations  :   592
 total energy-change (2. order) :-0.1521074E+03  (-0.1400365E+03)
 number of electron     960.0000000 magnetization 
 augmentation part      960.0000000 magnetization 

 Free energy of the ion-electron system (eV)
  ---------------------------------------------------
  alpha Z        PSCENC =       804.77846877
  Ewald energy   TEWEN  =    -29713.72931895
  -Hartree energ DENC   =    -12516.16814540
  -exchange      EXHF   =         0.00000000
  -V(xc)+E(xc)   XCENC  =      2535.90994628
  PAW double counting   =     32496.41603574   -33591.34861692
  entropy T*S    EENTRO =        -0.00000000
  eigenvalues    EBANDS =    -11553.33044621
  atomic energy  EATOM  =     50983.98519967
  Solvation  Ediel_sol  =         0.00000000
  ---------------------------------------------------
  free energy    TOTEN  =      -553.48687702 eV

  energy without entropy =     -553.48687702  energy(sigma->0) =     -553.48687702


--------------------------------------------------------------------------------------------------------




--------------------------------------- Iteration      1(   7)  ---------------------------------------


    EDDIAG:  cpu time    0.9686: real time    0.9695
  RMM-DIIS:  cpu time    5.4624: real time    5.4663
    ORTHCH:  cpu time    0.2655: real time    0.2661
       DOS:  cpu time    0.0003: real time    0.0003
    --------------------------------------------
      LOOP:  cpu time    6.6968: real time    6.7022

 eigenvalue-minimisations  :   592
 total energy-change (2. order) :-0.7217269E+02  (-0.6921562E+02)
 number of electron     960.0000000 magnetization 
 augmentation part      960.0000000 magnetization 

 Free energy of the ion-electron system (eV)
  ---------------------------------------------------
  alpha Z        PSCENC =       804.77846877
  Ewald energy   TEWEN  =    -29713.72931895
  -Hartree energ DENC   =    -12516.16814540
  -exchange      EXHF   =         0.00000000
  -V(xc)+E(xc)   XCENC  =      2535.90994628
  PAW double counting   =     32496.41603574   -33591.34861692
  entropy T*S    EENTRO =        -0.00000000
  eigenvalues    EBANDS =    -11625.50314059
  atomic energy  EATOM  =     50983.98519967
  Solvation  Ediel_sol  =         0.00000000
  ---------------------------------------------------
  free energy    TOTEN  =      -625.65957140 eV

  energy without entropy =     -625.65957140  energy(sigma->0) =     -625.65957140


--------------------------------------------------------------------------------------------------------




--------------------------------------- Iteration      1(   8)  ---------------------------------------


    EDDIAG:  cpu time    0.9396: real time    0.9409
  RMM-DIIS:  cpu time    5.4743: real time    5.4783
    ORTHCH:  cpu time    0.2656: real time    0.2666
       DOS:  cpu time    0.0003: real time    0.0003
    --------------------------------------------
      LOOP:  cpu time    6.6798: real time    6.6860

 eigenvalue-minimisations  :   592
 total energy-change (2. order) :-0.4196022E+02  (-0.3960561E+02)
 number of electron     960.0000000 magnetization 
 augmentation part      960.0000000 magnetization 

 Free energy of the ion-electron system (eV)
  ---------------------------------------------------
  alpha Z        PSCENC =       804.77846877
  Ewald energy   TEWEN  =    -29713.72931895
  -Hartree energ DENC   =    -12516.16814540
  -exchange      EXHF   =         0.00000000
  -V(xc)+E(xc)   XCENC  =      2535.90994628
  PAW double counting   =     32496.41603574   -33591.34861692
  entropy T*S    EENTRO =        -0.00000000
  eigenvalues    EBANDS =    -11667.46335969
  atomic energy  EATOM  =     50983.98519967
  Solvation  Ediel_sol  =         0.00000000
  ---------------------------------------------------
  free energy    TOTEN  =      -667.61979050 eV

  energy without entropy =     -667.61979050  energy(sigma->0) =     -667.61979050


--------------------------------------------------------------------------------------------------------




--------------------------------------- Iteration      1(   9)  ---------------------------------------


    EDDIAG:  cpu time    0.9359: real time    0.9391
  RMM-DIIS:  cpu time   19.4961: real time   19.5134
    ORTHCH:  cpu time    0.2671: real time    0.2673
       DOS:  cpu time    0.0004: real time    0.0004
    --------------------------------------------
      LOOP:  cpu time   20.6994: real time   20.7202

 eigenvalue-minimisations  :  2143
 total energy-change (2. order) :-0.1104516E+03  (-0.1097018E+03)
 number of electron     960.0000000 magnetization 
 augmentation part      960.0000000 magnetization 

 Free energy of the ion-electron system (eV)
  ---------------------------------------------------
  alpha Z        PSCENC =       804.77846877
  Ewald energy   TEWEN  =    -29713.72931895
  -Hartree energ DENC   =    -12516.16814540
  -exchange      EXHF   =         0.00000000
  -V(xc)+E(xc)   XCENC  =      2535.90994628
  PAW double counting   =     32496.41603574   -33591.34861692
  entropy T*S    EENTRO =        -0.00000000
  eigenvalues    EBANDS =    -11777.91500083
  atomic energy  EATOM  =     50983.98519967
  Solvation  Ediel_sol  =         0.00000000
  ---------------------------------------------------
  free energy    TOTEN  =      -778.07143164 eV

  energy without entropy =     -778.07143164  energy(sigma->0) =     -778.07143164


--------------------------------------------------------------------------------------------------------




--------------------------------------- Iteration      1(  10)  ---------------------------------------


    EDDIAG:  cpu time    0.9441: real time    0.9450
  RMM-DIIS:  cpu time   19.4756: real time   19.5015
    ORTHCH:  cpu time    0.2633: real time    0.2636
       DOS:  cpu time    0.0003: real time    0.0003
    --------------------------------------------
      LOOP:  cpu time   20.6832: real time   20.7105

 eigenvalue-minimisations  :  2137
 total energy-change (2. order) :-0.5661621E+02  (-0.5578411E+02)
 number of electron     960.0000000 magnetization 
 augmentation part      960.0000000 magnetization 

 Free energy of the ion-electron system (eV)
  ---------------------------------------------------
  alpha Z        PSCENC =       804.77846877
  Ewald energy   TEWEN  =    -29713.72931895
  -Hartree energ DENC   =    -12516.16814540
  -exchange      EXHF   =         0.00000000
  -V(xc)+E(xc)   XCENC  =      2535.90994628
  PAW double counting   =     32496.41603574   -33591.34861692
  entropy T*S    EENTRO =        -0.00000000
  eigenvalues    EBANDS =    -11834.53121081
  atomic energy  EATOM  =     50983.98519967
  Solvation  Ediel_sol  =         0.00000000
  ---------------------------------------------------
  free energy    TOTEN  =      -834.68764162 eV

  energy without entropy =     -834.68764162  energy(sigma->0) =     -834.68764162


--------------------------------------------------------------------------------------------------------




--------------------------------------- Iteration      1(  11)  ---------------------------------------


    EDDIAG:  cpu time    0.9374: real time    0.9382
  RMM-DIIS:  cpu time   18.9118: real time   18.9247
    ORTHCH:  cpu time    0.2581: real time    0.2583
       DOS:  cpu time    0.0004: real time    0.0004
    --------------------------------------------
      LOOP:  cpu time   20.1077: real time   20.1215

 eigenvalue-minimisations  :  2070
 total energy-change (2. order) :-0.1273385E+02  (-0.1295953E+02)
 number of electron     960.0000000 magnetization 
 augmentation part      960.0000000 magnetization 

 Free energy of the ion-electron system (eV)
  ---------------------------------------------------
  alpha Z        PSCENC =       804.77846877
  Ewald energy   TEWEN  =    -29713.72931895
  -Hartree energ DENC   =    -12516.16814540
  -exchange      EXHF   =         0.00000000
  -V(xc)+E(xc)   XCENC  =      2535.90994628
  PAW double counting   =     32496.41603574   -33591.34861692
  entropy T*S    EENTRO =        -0.00000000
  eigenvalues    EBANDS =    -11847.26506541
  atomic energy  EATOM  =     50983.98519967
  Solvation  Ediel_sol  =         0.00000000
  ---------------------------------------------------
  free energy    TOTEN  =      -847.42149622 eV

  energy without entropy =     -847.42149622  energy(sigma->0) =     -847.42149622


--------------------------------------------------------------------------------------------------------




--------------------------------------- Iteration      1(  12)  ---------------------------------------


    EDDIAG:  cpu time    0.9424: real time    0.9430
  RMM-DIIS:  cpu time   18.7243: real time   18.7413
    ORTHCH:  cpu time    0.2639: real time    0.2641
       DOS:  cpu time    0.0005: real time    0.0005
    CHARGE:  cpu time    0.1912: real time    0.1914
    MIXING:  cpu time    0.0023: real time    0.0027
    --------------------------------------------
      LOOP:  cpu time   20.1245: real time   20.1431

 eigenvalue-minimisations  :  2042
 total energy-change (2. order) :-0.6815897E+01  (-0.6813466E+01)
 number of electron     959.9999803 magnetization 
 augmentation part        6.5174040 magnetization 

 Broyden mixing:
  rms(total) = 0.72358E+01    rms(broyden)= 0.72332E+01
  rms(prec ) = 0.75399E+01
  weight for this iteration     100.00

 Free energy of the ion-electron system (eV)
  ---------------------------------------------------
  alpha Z        PSCENC =       804.77846877
  Ewald energy   TEWEN  =    -29713.72931895
  -Hartree energ DENC   =    -12516.16814540
  -exchange      EXHF   =         0.00000000
  -V(xc)+E(xc)   XCENC  =      2535.90994628
  PAW double counting   =     32496.41603574   -33591.34861692
  entropy T*S    EENTRO =        -0.00000000
  eigenvalues    EBANDS =    -11854.08096197
  atomic energy  EATOM  =     50983.98519967
  Solvation  Ediel_sol  =         0.00000000
  ---------------------------------------------------
  free energy    TOTEN  =      -854.23739278 eV

  energy without entropy =     -854.23739278  energy(sigma->0) =     -854.23739278


--------------------------------------------------------------------------------------------------------




--------------------------------------- Iteration      1(  13)  ---------------------------------------


    POTLOK:  cpu time    0.0810: real time    0.0812
    SETDIJ:  cpu time    0.0069: real time    0.0069
    EDDIAG:  cpu time    0.9461: real time    0.9465
  RMM-DIIS:  cpu time   14.3421: real time   14.3526
    ORTHCH:  cpu time    0.2641: real time    0.2643
       DOS:  cpu time    0.0006: real time    0.0006
    CHARGE:  cpu time    0.1930: real time    0.1932
    MIXING:  cpu time    0.0022: real time    0.0023
    --------------------------------------------
      LOOP:  cpu time   15.8361: real time   15.8476

 eigenvalue-minimisations  :  1587
 total energy-change (2. order) : 0.3688513E+02  (-0.8980125E+01)
 number of electron     959.9999808 magnetization 
 augmentation part        7.1969285 magnetization 

 Broyden mixing:
  rms(total) = 0.47680E+01    rms(broyden)= 0.47679E+01
  rms(prec ) = 0.48743E+01
  weight for this iteration     100.00

 eigenvalues of (default mixing * dielectric matrix)
  average eigenvalue GAMMA=   2.2449
  2.2449

 Free energy of the ion-electron system (eV)
  ---------------------------------------------------
  alpha Z        PSCENC =       804.77846877
  Ewald energy   TEWEN  =    -29713.72931895
  -Hartree energ DENC   =    -12817.05192817
  -exchange      EXHF   =         0.00000000
  -V(xc)+E(xc)   XCENC  =      2558.43181037
  PAW double counting   =     45712.58485868   -46829.69988104
  entropy T*S    EENTRO =        -0.00000000
  eigenvalues    EBANDS =    -11516.65147687
  atomic energy  EATOM  =     50983.98519967
  Solvation  Ediel_sol  =         0.00000000
  ---------------------------------------------------
  free energy    TOTEN  =      -817.35226755 eV

  energy without entropy =     -817.35226755  energy(sigma->0) =     -817.35226755


--------------------------------------------------------------------------------------------------------




--------------------------------------- Iteration      1(  14)  ---------------------------------------


    POTLOK:  cpu time    0.0813: real time    0.0816
    SETDIJ:  cpu time    0.0069: real time    0.0069
    EDDIAG:  cpu time    0.9682: real time    0.9693
  RMM-DIIS:  cpu time   15.2150: real time   15.2265
    ORTHCH:  cpu time    0.2634: real time    0.2638
       DOS:  cpu time    0.0007: real time    0.0007
    CHARGE:  cpu time    0.1939: real time    0.1940
    MIXING:  cpu time    0.0022: real time    0.0021
    --------------------------------------------
      LOOP:  cpu time   16.7317: real time   16.7449

 eigenvalue-minimisations  :  1666
 total energy-change (2. order) : 0.3382946E+01  (-0.7546696E+01)
 number of electron     959.9999813 magnetization 
 augmentation part        6.7735525 magnetization 

 Broyden mixing:
  rms(total) = 0.14665E+01    rms(broyden)= 0.14663E+01
  rms(prec ) = 0.16181E+01
  weight for this iteration     100.00

 eigenvalues of (default mixing * dielectric matrix)
  average eigenvalue GAMMA=   1.8939
  1.3920  2.3958

 Free energy of the ion-electron system (eV)
  ---------------------------------------------------
  alpha Z        PSCENC =       804.77846877
  Ewald energy   TEWEN  =    -29713.72931895
  -Hartree energ DENC   =    -13109.28579574
  -exchange      EXHF   =         0.00000000
  -V(xc)+E(xc)   XCENC  =      2581.38443321
  PAW double counting   =     72405.84434589   -73548.92812589
  entropy T*S    EENTRO =        -0.04578436
  eigenvalues    EBANDS =    -11217.97274416
  atomic energy  EATOM  =     50983.98519967
  Solvation  Ediel_sol  =         0.00000000
  ---------------------------------------------------
  free energy    TOTEN  =      -813.96932157 eV

  energy without entropy =     -813.92353721  energy(sigma->0) =     -813.94642939


--------------------------------------------------------------------------------------------------------




--------------------------------------- Iteration      1(  15)  ---------------------------------------


    POTLOK:  cpu time    0.0819: real time    0.0824
    SETDIJ:  cpu time    0.0068: real time    0.0068
    EDDIAG:  cpu time    0.9649: real time    0.9656
  RMM-DIIS:  cpu time   16.8714: real time   16.8853
    ORTHCH:  cpu time    0.2599: real time    0.2602
       DOS:  cpu time    0.0003: real time    0.0003
    CHARGE:  cpu time    0.1927: real time    0.1928
    MIXING:  cpu time    0.0023: real time    0.0023
    --------------------------------------------
      LOOP:  cpu time   18.3803: real time   18.3958

 eigenvalue-minimisations  :  1838
 total energy-change (2. order) :-0.1628048E+01  (-0.2187523E+01)
 number of electron     959.9999812 magnetization 
 augmentation part        5.5042605 magnetization 

 Broyden mixing:
  rms(total) = 0.59629E+00    rms(broyden)= 0.59586E+00
  rms(prec ) = 0.72090E+00
  weight for this iteration     100.00

 eigenvalues of (default mixing * dielectric matrix)
  average eigenvalue GAMMA=   1.4759
  2.4142  1.3675  0.6459

 Free energy of the ion-electron system (eV)
  ---------------------------------------------------
  alpha Z        PSCENC =       804.77846877
  Ewald energy   TEWEN  =    -29713.72931895
  -Hartree energ DENC   =    -13105.28364787
[...]
      9.72205      1.74340      4.21777        -0.840900      1.009189     -1.999904
     12.64920      0.07490     13.95860        -1.062553      0.962430      1.969170
     14.54220     13.63500      1.94423         2.442375      1.296063      2.114931
      5.43226      8.47210      0.82332        -0.492758      3.050683      0.683894
     13.50500      4.20302      3.06892         1.260815     -4.130069     -2.856662
     10.70100      7.57263     16.15880         1.016659      0.262559      0.671308
      4.33619     10.64900      4.07749        -0.435150     -0.856237      4.400614
      8.14603      6.71446     13.93480        -1.776960     -1.944589     -0.224741
     11.16250      0.78673      9.26811         0.119207      0.524554      0.721465
     10.53000     14.16240      7.54606         0.419843     -0.451757      0.427465
      9.71323     14.14960     10.58730        -2.143459     -0.875241      2.082201
     12.81870     14.05200     10.29680        -0.535948      0.226352     -0.704136
     10.97870     10.88360     11.92870        -0.688939      0.611885     -0.577629
     11.45750     11.91210      4.83960         1.384834     -0.893874      0.722216
      8.08656     15.44110     10.34490         0.619668      0.208066     -0.333507
      8.10883     11.13390      7.01213        -0.158802     -0.583945      0.216420
      6.74765      6.40690      3.07206         0.422359      0.242667      0.069206
      5.45939      4.62369      5.81493         0.151795     -0.468939     -0.117873
      1.99109      2.18270      4.34268         0.273388     -0.352207     -0.105095
      3.79746      5.50369      3.01809        -0.465252      0.141571     -0.207562
      3.92227     15.56550      6.62966         0.307840     -0.139637     -0.295250
      4.48631      0.70825      9.47075         0.548503      1.914577      1.765881
      4.44599     13.48480      9.23680        -1.617055      1.100679     -0.197935
      1.34415     15.36120      8.64881         0.148517      0.598712      0.540038
     14.30960      7.29482      7.12433        -0.743228     -0.969042      1.215149
     10.63820      8.41151      5.02669         0.508571      0.221217      0.304027
      1.11515      9.48218      6.39087        -0.925582     -0.360249     -0.012067
     10.85570      5.05999      7.09416         0.122920     -0.520679      0.442658
     13.94670      6.62303     13.99550        -1.144429      0.743754     -0.608095
      0.44355      7.07799     12.44610         1.109960      0.514214     -0.413149
     13.85830      9.06997     11.41200         0.479291     -0.268177      1.956607
     10.81300      7.80120      9.04961         0.565070      0.270975      0.427768
      9.22788      9.26367      9.55465         0.035763     -0.655138     -0.330963
      7.64991      6.90644      8.48303        -0.705664      0.063669      0.306131
      6.79132      3.78339      9.48241        -1.136003      1.411496     -2.064207
      8.98510      4.24448      7.73234         2.168979     -1.931229     -3.070509
      0.50851     11.40300      9.32749         0.168963     -0.489706     -0.097759
      5.59395     10.39070      9.55978        -0.629140     -0.745272     -0.090778
      0.87752      7.98263      9.37288         0.186599      0.472166     -0.070630
      2.69332     11.58690     12.66830        -0.418131      0.350476      0.340994
      7.52381      1.14779      6.38589        -0.746589     -0.286155      0.093623
     11.15600      1.65272      2.37947         0.245578     -0.611524      0.677104
     10.89770      1.39394      5.83040         1.141771     -0.192295      0.817570
      9.39623      3.87175      3.96974        -0.825408     -0.425890      0.510099
     11.98240      1.58108     15.37840         1.263416     -0.998124     -0.084810
     10.95100     16.03630     12.98040        -2.296888     -0.475924     -1.652759
     12.71640     14.27980     14.78610         0.143429     -0.229739     -0.180497
     14.10340      0.56773     12.77290         1.432685      0.133963     -0.571605
     13.24470     15.14530      2.61654        -0.811205     -0.154520      0.838509
     14.70140      9.33026      3.86026         0.527109     -0.212161      0.107617
     15.58460     14.66670      0.44773        -0.195531      1.123993     -0.940573
     13.44890     12.38070      0.96350        -2.291357     -2.934041     -1.616236
      5.87302      9.38236      4.64695         0.286696     -0.071541     -0.528689
      7.16313      9.07308     16.24620         1.026845      0.871997      0.037751
      3.87216      9.83586     16.12340         0.107829     -0.596442      0.613226
      5.32100      6.67875      0.07798        -0.561517     -2.736734     -1.435616
     13.77300      3.11677      4.63790        -0.313425     -2.017311      2.490179
     11.87610      3.46497      1.87435        -0.481038      0.588565     -0.498087
     15.23610      4.20926      2.06619         0.601805      0.456364     -0.943473
     13.09830      5.86344      3.76466        -1.770436      5.683578      1.104499
     10.37990      8.11212      1.67525        -0.427149      0.616268      0.328150
      9.52496      6.02703     15.50860        -0.552705     -0.501121     -0.519221
     12.35030      6.54312     16.32520         1.870093     -2.407455      1.478501
     11.45350      9.07477     15.10510        -1.554204      2.090728     -0.964720
      2.70921      9.48357      3.61679         0.091958      0.214636     -0.753993
      4.85476     12.22620      3.08671        -0.044231      1.318207     -1.625959
      7.32045     12.76210      5.97865        -0.352496      0.873459      0.191090
      3.90978     11.42200      6.20943        -1.082474      0.361076     -2.054433
      8.08444      4.52492     13.07430        -0.977175      0.961592      1.378420
     11.35400      6.70693     10.69280        -0.598627     -0.191101     -0.312607
      8.10295      1.41627     14.15530         0.102990     -0.637289     -0.653521
      8.92327      7.68800     12.43370         0.689417      1.270778     -0.826559
      8.68794     11.35010      2.80756         0.675979     -0.223685     -1.306141
      3.65010     14.42640      0.03645         0.171693     -0.178781     -0.301279
      6.90504     11.68210     10.35330         1.216312      0.906939      0.064736
     15.58920      9.84838     15.07560        -0.040244      0.350467     -1.166080
      3.71714      7.56733     13.37850        -0.296873     -0.439603     -0.193385
      6.08123      2.92608      0.00827        -0.305667      0.771852      1.612507
     11.62610      3.76911     12.44250         0.062133      0.043833     -0.201676
      4.13505      2.81647     12.69530         1.292159      0.332631     -0.491487
      0.93920      5.65627      5.58210        -0.378414      0.121461     -0.564321
     15.47070      8.32244      2.08188        -0.280308      0.435443      0.586214
      5.39090     14.71270     12.91760         0.844205     -1.410276     -0.527092
     14.78840     13.16950      6.62413        -1.103583     -1.190217     -0.274637
      0.03165      3.48056     12.94080         0.161059     -0.326334     -0.934742
      8.47970      6.99938      4.17332        -1.560825      1.080646      0.878490
      9.34961     14.82500      3.87342         0.083806     -0.252573      0.284743
      7.59434      2.14904     10.23810         0.852139     -1.628710      0.181994
      8.52065     15.08860      0.09334        -0.625632     -0.524024      0.557930
      5.95061      0.20543      2.66257        -0.871667      0.436324     -0.467852
      3.94554      7.30083      7.11774        -0.067848      0.522110     -0.200706
      8.53123     12.31600     14.66690         1.956756     -0.897315     -0.025706
      6.11848     10.25470     12.98080         0.147544     -0.088879      0.875517
      2.37738      2.64992     16.37220         0.164715     -0.119061      0.476639
     14.07090      3.44227      9.05265        -0.381517      0.239170     -0.212984
      1.63172      4.04910      9.51700        -0.178763     -0.324833     -0.960576
      1.40548     11.81520      1.08203        -0.456991     -0.946816      0.089009
      1.27314     13.74690      4.52328        -0.229888     -0.056135     -0.161920
      1.68813     15.23740     12.72520         0.941107      4.003536      1.362190
     15.19600     12.84320     12.65260         0.125778     -0.166681      0.496367
      1.03801      6.81703     15.99460         0.110574     -0.351061      0.615049
     12.48050     10.69220      8.34057        -0.310366      0.165339     -0.273526
     14.33660      0.34483      6.45252        -0.197163      0.345577      0.820324
      4.40035      6.09704     10.44150         0.045815     -0.215538      0.143066
 -----------------------------------------------------------------------------------
    total drift:                                0.034793      0.009036      0.011806


--------------------------------------------------------------------------------------------------------



  FREE ENERGIE OF THE ION-ELECTRON SYSTEM (eV)
  ---------------------------------------------------
  free  energy   TOTEN  =      -815.12247134 eV

  energy  without entropy=     -815.12180260  energy(sigma->0) =     -815.12213697
 


--------------------------------------------------------------------------------------------------------


    POTLOK:  cpu time    0.0924: real time    0.0925


--------------------------------------------------------------------------------------------------------




--------------------------------------------------------------------------------------------------------


     LOOP+:  cpu time  969.6233: real time  970.5831
    4ORBIT:  cpu time    0.0000: real time    0.0000
 


 total charge     
 
# of ion       s       p       d       tot
------------------------------------------
    1        2.022   0.057   0.000   2.079
    2        2.003   0.028   0.000   2.031
    3        2.020   0.055   0.000   2.075
    4        2.027   0.068   0.000   2.095
    5        2.028   0.072   0.000   2.100
    6        2.011   0.038   0.000   2.049
    7        2.004   0.027   0.000   2.031
    8        2.016   0.048   0.000   2.064
    9        2.007   0.033   0.000   2.040
   10        2.018   0.051   0.000   2.068
   11        2.015   0.043   0.000   2.058
   12        2.020   0.056   0.000   2.076
   13        2.011   0.036   0.000   2.047
   14        2.010   0.042   0.000   2.052
   15        2.011   0.041   0.000   2.052
   16        2.020   0.054   0.000   2.074
   17        2.014   0.047   0.000   2.061
   18        2.017   0.049   0.000   2.066
   19        2.006   0.032   0.000   2.037
   20        2.016   0.049   0.000   2.064
   21        2.015   0.046   0.000   2.061
   22        2.020   0.055   0.000   2.076
   23        2.001   0.024   0.000   2.025
   24        2.017   0.050   0.000   2.067
   25        2.018   0.051   0.000   2.068
   26        2.023   0.061   0.000   2.083
   27        2.029   0.067   0.000   2.096
   28        2.025   0.064   0.000   2.089
   29        2.025   0.059   0.000   2.084
   30        2.008   0.037   0.000   2.045
   31        2.018   0.047   0.000   2.065
   32        2.021   0.051   0.000   2.072
   33        2.016   0.046   0.000   2.062
   34        2.014   0.043   0.000   2.057
   35        2.022   0.059   0.000   2.081
   36        2.015   0.042   0.000   2.057
   37        2.011   0.039   0.000   2.050
   38        2.014   0.042   0.000   2.056
   39        2.019   0.053   0.000   2.072
   40        2.041   0.086   0.000   2.127
   41        2.020   0.053   0.000   2.073
   42        2.022   0.055   0.000   2.076
   43        2.019   0.052   0.000   2.071
   44        2.018   0.049   0.000   2.066
   45        2.007   0.031   0.000   2.038
   46        2.012   0.040   0.000   2.052
   47        2.017   0.046   0.000   2.063
   48        2.019   0.052   0.000   2.071
   49        2.015   0.046   0.000   2.061
   50        2.023   0.059   0.000   2.082
   51        2.016   0.048   0.000   2.064
   52        2.015   0.047   0.000   2.062
   53        2.017   0.049   0.000   2.066
   54        2.018   0.052   0.000   2.070
   55        2.020   0.052   0.000   2.071
   56        2.009   0.038   0.000   2.047
   57        2.011   0.043   0.000   2.054
   58        2.008   0.036   0.000   2.044
   59        2.022   0.058   0.000   2.080
   60        2.019   0.050   0.000   2.069
   61        2.021   0.055   0.000   2.076
   62        2.029   0.063   0.000   2.092
   63        2.026   0.064   0.000   2.090
   64        2.049   0.107   0.000   2.156
   65        2.016   0.045   0.000   2.061
   66        2.015   0.046   0.000   2.061
   67        2.025   0.060   0.000   2.084
   68        2.023   0.056   0.000   2.079
   69        2.010   0.038   0.000   2.047
   70        2.022   0.055   0.000   2.077
   71        2.025   0.062   0.000   2.087
   72        2.020   0.054   0.000   2.075
   73        2.023   0.060   0.000   2.084
   74        2.021   0.054   0.000   2.075
   75        2.018   0.048   0.000   2.066
   76        2.012   0.039   0.000   2.051
   77        2.033   0.075   0.000   2.109
   78        2.026   0.067   0.000   2.092
   79        2.016   0.049   0.000   2.066
   80        2.021   0.055   0.000   2.076
   81        2.021   0.058   0.000   2.079
   82        2.014   0.046   0.000   2.061
   83        2.035   0.082   0.000   2.117
   84        2.018   0.050   0.000   2.069
   85        2.015   0.046   0.000   2.061
   86        2.010   0.037   0.000   2.048
   87        2.021   0.054   0.000   2.075
   88        2.017   0.050   0.000   2.067
   89        2.026   0.066   0.000   2.092
   90        2.018   0.052   0.000   2.070
   91        2.026   0.069   0.000   2.095
   92        2.020   0.052   0.000   2.072
   93        2.013   0.042   0.000   2.054
   94        2.022   0.051   0.000   2.074
   95        2.014   0.046   0.000   2.060
   96        2.015   0.045   0.000   2.060
   97        0.980   1.408   0.000   2.388
   98        1.120   1.277   0.000   2.397
   99        1.043   1.389   0.000   2.431
  100        0.982   1.364   0.000   2.346
  101        1.108   1.292   0.000   2.400
  102        1.068   1.329   0.000   2.397
  103        1.083   1.435   0.000   2.517
  104        1.089   1.289   0.000   2.377
  105        1.113   1.261   0.000   2.374
  106        0.974   1.418   0.000   2.392
  107        1.052   1.423   0.000   2.475
  108        1.081   1.327   0.000   2.408
  109        0.985   1.507   0.000   2.491
  110        0.978   1.444   0.000   2.422
  111        0.977   1.376   0.000   2.353
  112        1.088   1.316   0.000   2.404
  113        1.333   2.453   0.000   3.785
  114        1.335   2.422   0.000   3.757
  115        1.361   2.384   0.000   3.745
  116        1.354   2.360   0.000   3.714
  117        1.347   2.372   0.000   3.718
  118        1.311   2.522   0.000   3.834
  119        1.350   2.364   0.000   3.714
  120        1.342   2.372   0.000   3.714
  121        1.357   2.354   0.000   3.710
  122        1.343   2.427   0.000   3.770
  123        1.313   2.401   0.000   3.714
  124        1.344   2.415   0.000   3.759
  125        1.330   2.442   0.000   3.772
  126        1.346   2.457   0.000   3.803
  127        1.350   2.351   0.000   3.701
  128        1.343   2.409   0.000   3.752
  129        1.341   2.479   0.000   3.820
  130        1.322   2.405   0.000   3.728
  131        1.360   2.353   0.000   3.713
  132        1.340   2.367   0.000   3.708
  133        1.344   2.460   0.000   3.804
  134        1.334   2.455   0.000   3.790
  135        1.338   2.408   0.000   3.746
  136        1.374   2.239   0.000   3.613
  137        1.380   2.289   0.000   3.668
  138        1.340   2.414   0.000   3.754
  139        1.364   2.370   0.000   3.734
  140        1.353   2.387   0.000   3.740
  141        1.334   2.422   0.000   3.756
  142        1.336   2.372   0.000   3.708
  143        1.348   2.392   0.000   3.741
  144        1.306   2.496   0.000   3.802
  145        1.309   2.477   0.000   3.787
  146        1.376   2.268   0.000   3.644
  147        1.333   2.455   0.000   3.788
  148        1.342   2.395   0.000   3.737
  149        1.348   2.357   0.000   3.705
  150        1.340   2.504   0.000   3.844
  151        1.345   2.436   0.000   3.782
  152        1.350   2.445   0.000   3.796
  153        1.341   2.420   0.000   3.761
  154        1.360   2.263   0.000   3.623
  155        1.331   2.492   0.000   3.823
  156        1.338   2.478   0.000   3.816
  157        1.340   2.434   0.000   3.775
  158        1.334   2.431   0.000   3.765
  159        1.333   2.380   0.000   3.713
  160        1.334   2.525   0.000   3.859
  161        1.342   2.522   0.000   3.864
  162        1.364   2.314   0.000   3.678
  163        1.339   2.447   0.000   3.786
  164        1.335   2.578   0.000   3.913
  165        1.342   2.444   0.000   3.785
  166        1.365   2.358   0.000   3.723
  167        1.343   2.493   0.000   3.836
  168        1.335   2.454   0.000   3.790
  169        1.337   2.444   0.000   3.781
  170        1.347   2.461   0.000   3.808
  171        1.336   2.393   0.000   3.729
  172        1.349   2.357   0.000   3.705
  173        1.346   2.364   0.000   3.710
  174        1.357   2.333   0.000   3.690
  175        1.319   2.415   0.000   3.734
  176        1.350   2.434   0.000   3.784
  177        1.312   2.493   0.000   3.805
  178        1.309   2.425   0.000   3.734
  179        1.341   2.343   0.000   3.684
  180        1.308   2.481   0.000   3.790
  181        1.311   2.491   0.000   3.802
  182        1.315   2.462   0.000   3.777
  183        1.311   2.467   0.000   3.778
  184        1.308   2.473   0.000   3.781
  185        1.308   2.456   0.000   3.765
  186        1.347   2.323   0.000   3.670
  187        1.309   2.499   0.000   3.807
  188        1.316   2.480   0.000   3.796
  189        1.311   2.435   0.000   3.747
  190        1.378   2.308   0.000   3.686
  191        1.318   2.422   0.000   3.740
  192        1.351   2.394   0.000   3.745
  193        1.591   3.610   0.000   5.201
  194        1.593   3.566   0.000   5.159
  195        1.591   3.563   0.000   5.154
  196        1.593   3.658   0.000   5.251
  197        1.593   3.587   0.000   5.180
  198        1.589   3.549   0.000   5.137
  199        1.588   3.581   0.000   5.169
  200        1.591   3.611   0.000   5.202
  201        1.593   3.607   0.000   5.200
  202        1.594   3.574   0.000   5.168
  203        1.597   3.625   0.000   5.222
  204        1.593   3.555   0.000   5.148
  205        1.592   3.575   0.000   5.167
  206        1.595   3.586   0.000   5.181
  207        1.592   3.569   0.000   5.161
  208        1.593   3.573   0.000   5.165
--------------------------------------------------
tot        343.034 277.482   0.000 620.516
 

 total amount of memory used by VASP MPI-rank0   111673. kBytes
=======================================================================

   base      :      30000. kBytes
   nonl-proj :      48226. kBytes
   fftplans  :       6264. kBytes
   grid      :      10964. kBytes
   one-center:         79. kBytes
   wavefun   :      16140. kBytes
 
  
  
 General timing and accounting informations for this job:
 ========================================================
  
                  Total CPU time used (sec):      978.870
                            User time (sec):      975.379
                          System time (sec):        3.491
                         Elapsed time (sec):      980.323
  
                   Maximum memory used (kb):      329016.
                   Average memory used (kb):           0.
  
                          Minor page faults:       454789
                          Major page faults:            0
                 Voluntary context switches:         7686
