LPSC                                    
           1
    16.026082    0.000000    0.000000
     0.000000   16.100000    0.000000
     0.000000    0.000000   16.425367
   Li   P    S    Cl
  96  16  80  16
Direct configuration=     1
   0.72594786  0.81262112  0.18930962
   0.57360370  0.67362733  0.00214943
   0.66140308  0.63063975  0.19091385
   0.83221214  0.93659006  0.02164755
   0.58036331  0.77424845  0.29576265
   0.90797614  0.75212422  0.90632983
   0.23767943  0.04654969  0.05030317
   0.21049936  0.85323602  0.28185732
   0.10903850  0.00574216  0.36153530
   0.22648206  0.74120497  0.05624903
   0.10405850  0.68989441  0.89848830
   0.32916592  0.84640373  0.43061138
   0.35924626  0.48894037  0.61185847
   0.52797933  0.80884472  0.53466872
   0.71965812  0.85593789  0.76912741
   0.34361861  0.63790062  0.43853084
   0.70257971  0.53433230  0.76238784
   0.15972026  0.71743478  0.62859478
   0.97449894  0.90877019  0.87542641
   0.91703637  0.47725528  0.96925688
   0.16319023  0.46685528  0.68309585
   0.50852604  0.88483230  0.87140823
   0.01046831  0.62548447  0.74505489
   0.83998073  0.57437888  0.84978314
   0.36601772  0.48657205  0.87622395
   0.07903679  0.51187702  0.87287547
   0.23753154  0.60829565  0.81595133
   0.42743947  0.70506211  0.91394609
   0.06214176  0.31527826  0.68424042
   0.52895773  0.63760870  0.73733512
   0.27224433  0.26388944  0.04433880
   0.35454829  0.17267702  0.14690996
   0.47092296  0.07522484  0.01182202
   0.43256549  0.32083665  0.05340441
   0.63212581  0.38529627  0.19096681
   0.07964205  0.16755466  0.13011277
   0.80487545  0.10963851  0.48054878
   0.81696824  0.31002236  0.66979325
   0.62344932  0.00449304  0.93888313
   0.57232953  0.31096832  0.68318717
   0.86127102  0.17684224  0.81072770
   0.76415433  0.31881677  0.86563058
   0.47268322  0.21596335  0.35870371
   0.25411638  0.00467725  0.73001109
   0.32716169  0.09009441  0.33886244
   0.98513161  0.16858820  0.62124639
   0.41259929  0.01241404  0.50450745
   0.93924392  0.32660248  0.41588842
   0.38097272  0.41852422  0.39319182
   0.99866580  0.21371118  0.26345469
   0.18270467  0.26971118  0.30558708
   0.96584430  0.38800435  0.21016273
   0.13707717  0.47822298  0.31471078
   0.29077662  0.48457950  0.20349134
   0.78976883  0.60530186  0.30265808
   0.11076943  0.57970373  0.08424165
   0.80422651  0.47605590  0.12172574
   0.08462018  0.70709938  0.29279833
   0.95822547  0.65950311  0.04045974
   0.10829908  0.40858323  0.46024360
   0.43627008  0.01485807  0.75256157
   0.33175545  0.94037267  0.91281979
   0.38813978  0.88069565  0.63929774
   0.08677043  0.83937888  0.74726489
   0.21065660  0.84794410  0.85892145
   0.31027359  0.75529814  0.74748406
   0.04118655  0.82918634  0.46453635
   0.87842431  0.90953416  0.48916411
   0.87541047  0.79794410  0.25713946
   0.89637005  0.73744720  0.52949502
   0.78134506  0.77219876  0.41519864
   0.74718200  0.10651801  0.70351548
   0.99163351  0.33252547  0.86040087
   0.37206162  0.18251615  0.86270827
   0.13770615  0.15748696  0.83198141
   0.29283514  0.33667453  0.77922764
   0.09089246  0.86817391  0.05332100
   0.20917152  0.46123975  0.94976264
   0.58771944  0.42119255  0.40425094
   0.51423361  0.57253354  0.12626567
   0.71080380  0.23436770  0.30516639
   0.52590708  0.59926770  0.29916592
   0.43221231  0.71099379  0.23861750
   0.77427533  0.42560559  0.34986798
   0.83019044  0.04842491  0.27538076
   0.50096150  0.86622360  0.12690675
   0.64536672  0.67947826  0.40600371
   0.69565350  0.93150311  0.32978198
   0.46514176  0.02288435  0.24892229
   0.53688731  0.93768323  0.38365048
   0.39149494  0.22674037  0.70132375
   0.83224334  0.54975590  0.56642631
   0.58014741  0.10281988  0.72394121
   0.20410915  0.19589317  0.64728538
   0.58635604  0.10537702  0.47902126
   0.62646004  0.18893540  0.85537206
   0.69567222  0.92332298  0.57500207
   0.62688435  0.68767081  0.61236379
   0.34820613  0.29603478  0.22836019
   0.20927199  0.95979503  0.52940735
   0.93608656  0.55539876  0.38928141
   0.90015139  0.43760621  0.73062599
   0.52589086  0.32224099  0.56916354
   0.09915025  0.60327764  0.51651449
   0.60663923  0.10828571  0.25678391
   0.78928836  0.00465233  0.84981967
   0.90740831  0.84689441  0.11836752
   0.33896370  0.52621739  0.05012479
   0.84268881  0.26105714  0.18684027
   0.66772403  0.47034969  0.98377102
   0.27057081  0.66142857  0.24824346
   0.50829829  0.41704720  0.84837069
   0.69652083  0.04886528  0.56425589
   0.65705392  0.87965217  0.45941500
   0.60608887  0.87885714  0.64457007
   0.79986487  0.87279503  0.62688401
   0.68505203  0.67600000  0.72623644
   0.71492833  0.73988199  0.29464182
   0.50458746  0.95907453  0.62981241
   0.50597707  0.69154658  0.42690857
   0.42104177  0.39794410  0.18703144
   0.34065656  0.28718571  0.35402131
   0.12424060  0.13557143  0.26438861
   0.23695498  0.34184410  0.18374567
   0.24474291  0.96680124  0.40362325
   0.27993804  0.04399087  0.57659290
   0.27742214  0.83756522  0.56234969
   0.08387265  0.95411180  0.52655201
   0.89289447  0.45309441  0.43373947
   0.66380541  0.52245404  0.30603213
   0.06958345  0.58895528  0.38908537
   0.67737704  0.31428509  0.43190268
   0.87025013  0.41136832  0.85206620
   0.02767701  0.43962671  0.75773649
   0.86473413  0.56335217  0.69477900
   0.67471263  0.48454658  0.55095329
   0.57580387  0.57538323  0.58170085
   0.47734125  0.42897143  0.51645908
   0.42376671  0.23499317  0.57730278
   0.56065481  0.26363230  0.47075600
   0.03173034  0.70826087  0.56787103
   0.34905288  0.64538509  0.58201318
   0.05475555  0.49581553  0.57063443
   0.16805854  0.71968323  0.77126435
   0.46947283  0.07129130  0.38878218
   0.69611525  0.10265342  0.14486556
   0.67999777  0.08658012  0.35496315
   0.58630862  0.24048137  0.24168349
   0.74768119  0.09820373  0.93625914
   0.68332360  0.99604348  0.79026545
   0.79348153  0.88694410  0.90019906
   0.88002794  0.03526248  0.77763255
   0.82644654  0.94070186  0.15929872
   0.91734212  0.57951925  0.23501819
   0.97245228  0.91097516  0.02725869
   0.83918827  0.76898758  0.05865951
   0.36646636  0.58275528  0.28291301
   0.44696701  0.56354534  0.98909205
   0.24161614  0.61092298  0.98161581
   0.33202126  0.41482919  0.00474726
   0.85941155  0.19358820  0.28236203
   0.74104825  0.21521553  0.11411313
   0.95070648  0.26144472  0.12579262
   0.81731143  0.36418882  0.22919792
   0.64768794  0.50385839  0.10199163
   0.59434115  0.37434969  0.94418590
   0.77063751  0.40640497  0.99390169
   0.71467873  0.56365031  0.91962024
   0.16905005  0.58904161  0.22019538
   0.30292869  0.75939130  0.18792335
   0.45678351  0.79267702  0.36398882
   0.24396356  0.70944099  0.37803904
   0.50445518  0.28105093  0.79598221
   0.70847011  0.41657950  0.65099306
   0.50561017  0.08796708  0.86179505
   0.55679673  0.47751553  0.75698156
   0.54211254  0.70497516  0.17092830
   0.22775997  0.89604969  0.00221904
   0.43086264  0.72559627  0.63032382
   0.97273931  0.61170062  0.91782424
   0.23194315  0.47002050  0.81450235
   0.37945831  0.18174410  0.00050372
   0.72544868  0.23410621  0.75751732
   0.25802002  0.17493602  0.77290815
   0.05860478  0.35132112  0.33984629
   0.96534512  0.51692174  0.12674785
   0.33638290  0.91383230  0.78644209
   0.92277077  0.81798137  0.40328657
   0.00197482  0.21618385  0.78785454
   0.52911872  0.43474410  0.25407773
   0.58339961  0.92080745  0.23581939
   0.47387378  0.13348075  0.62331027
   0.53167393  0.93718012  0.00568249
   0.37130785  0.01275969  0.16210110
   0.24619492  0.45346770  0.43333826
   0.53233410  0.76496894  0.89294200
   0.38178265  0.63693789  0.79028980
   0.14834443  0.16459130  0.99676312
   0.87800000  0.21380559  0.55113837
   0.10181653  0.25149689  0.57940867
   0.08769954  0.73386335  0.06587554
   0.07944175  0.85384472  0.27538380
   0.10533641  0.94642236  0.77472850
   0.94820431  0.79771429  0.77030851
   0.06477004  0.42341801  0.97377428
   0.77876177  0.66411180  0.50778591
   0.89457922  0.02141795  0.39283871
   0.27457428  0.37869814  0.63569356
