       N       E                     dE             d eps       ncg     rms          rms(c)
RMM:   1    -0.113577585129E+04   -0.11358E+04   -0.14685E+05   184   0.131E+03
RMM:   2     0.743390977494E+03    0.18792E+04   -0.22992E+04   184   0.254E+02
RMM:   3     0.235906791545E+03   -0.50748E+03   -0.73146E+03   184   0.135E+02
RMM:   4    -0.198672406161E+02   -0.25577E+03   -0.25852E+03   184   0.977E+01
RMM:   5    -0.131767456414E+03   -0.11190E+03   -0.10206E+03   184   0.632E+01
RMM:   6    -0.177304318240E+03   -0.45537E+02   -0.42733E+02   184   0.466E+01
RMM:   7    -0.199082326824E+03   -0.21778E+02   -0.20979E+02   184   0.354E+01
RMM:   8    -0.211804648355E+03   -0.12722E+02   -0.12019E+02   184   0.303E+01
RMM:   9    -0.245926475784E+03   -0.34122E+02   -0.33894E+02   668   0.263E+01
RMM:  10    -0.263187375237E+03   -0.17261E+02   -0.16992E+02   664   0.169E+01
RMM:  11    -0.267073812146E+03   -0.38864E+01   -0.39141E+01   642   0.101E+01
RMM:  12    -0.269175229000E+03   -0.21014E+01   -0.20956E+01   634   0.741E+00    0.375E+01
RMM:  13    -0.260711277007E+03    0.84640E+01   -0.21341E+01   492   0.727E+00    0.244E+01
RMM:  14    -0.259712219611E+03    0.99906E+00   -0.17848E+01   515   0.651E+00    0.645E+00
RMM:  15    -0.259822670827E+03   -0.11045E+00   -0.38434E+00   583   0.374E+00    0.164E+00
RMM:  16    -0.259945325328E+03   -0.12265E+00   -0.14837E+00   631   0.239E+00    0.137E+00
RMM:  17    -0.260028002317E+03   -0.82677E-01   -0.78662E-01   612   0.171E+00    0.551E-01
RMM:  18    -0.260074424496E+03   -0.46422E-01   -0.45769E-01   608   0.125E+00    0.140E-01
RMM:  19    -0.260107024495E+03   -0.32600E-01   -0.33417E-01   624   0.952E-01    0.170E-01
RMM:  20    -0.260121304902E+03   -0.14280E-01   -0.14706E-01   635   0.692E-01    0.238E-01
RMM:  21    -0.260129342662E+03   -0.80378E-02   -0.89188E-02   614   0.531E-01    0.364E-01
RMM:  22    -0.260133884170E+03   -0.45415E-02   -0.57845E-02   615   0.421E-01    0.429E-01
RMM:  23    -0.260136302808E+03   -0.24186E-02   -0.30272E-02   607   0.330E-01    0.299E-01
RMM:  24    -0.260138160754E+03   -0.18579E-02   -0.19855E-02   638   0.257E-01    0.227E-01
RMM:  25    -0.260139476191E+03   -0.13154E-02   -0.12697E-02   638   0.201E-01    0.171E-01
RMM:  26    -0.260140244609E+03   -0.76842E-03   -0.72965E-03   638   0.155E-01    0.126E-01
RMM:  27    -0.260140743105E+03   -0.49850E-03   -0.49337E-03   638   0.123E-01    0.922E-02
RMM:  28    -0.260141048087E+03   -0.30498E-03   -0.30376E-03   638   0.969E-02    0.663E-02
RMM:  29    -0.260141171762E+03   -0.12367E-03   -0.20652E-03   600   0.864E-02    0.445E-02
RMM:  30    -0.260141264918E+03   -0.93156E-04   -0.14212E-03   637   0.636E-02    0.607E-02
RMM:  31    -0.260141313946E+03   -0.49028E-04   -0.89818E-04   618   0.494E-02    0.699E-02
RMM:  32    -0.260141288873E+03    0.25073E-04   -0.56406E-04   631   0.406E-02    0.916E-02
RMM:  33    -0.260141370782E+03   -0.81910E-04   -0.41627E-04   564   0.336E-02    0.754E-02
RMM:  34    -0.260141432840E+03   -0.62058E-04   -0.31342E-04   564   0.276E-02    0.640E-02
RMM:  35    -0.260141458659E+03   -0.25819E-04   -0.20126E-04   475   0.222E-02    0.623E-02
RMM:  36    -0.260141478508E+03   -0.19849E-04   -0.13197E-04   441   0.183E-02    0.603E-02
RMM:  37    -0.260141489407E+03   -0.10899E-04   -0.10015E-04   452   0.158E-02    0.594E-02
RMM:  38    -0.260141502446E+03   -0.13040E-04   -0.66799E-05   466   0.137E-02    0.569E-02
RMM:  39    -0.260141508630E+03   -0.61838E-05   -0.46166E-05   346   0.118E-02    0.566E-02
RMM:  40    -0.260141513167E+03   -0.45368E-05   -0.31531E-05   362   0.106E-02    0.558E-02
RMM:  41    -0.260141520147E+03   -0.69806E-05   -0.24663E-05   391   0.987E-03    0.536E-02
RMM:  42    -0.260141523297E+03   -0.31500E-05   -0.18136E-05   378   0.906E-03    0.527E-02
RMM:  43    -0.260141530562E+03   -0.72644E-05   -0.16073E-05   409   0.873E-03    0.499E-02
RMM:  44    -0.260141535725E+03   -0.51631E-05   -0.14348E-05   417   0.826E-03    0.477E-02
RMM:  45    -0.260141537233E+03   -0.15087E-05   -0.80821E-06   346   0.750E-03    0.474E-02
RMM:  46    -0.260141538150E+03   -0.91614E-06   -0.50496E-06   320   0.707E-03
   1 F= -.26014154E+03 E0= -.26014154E+03  d E =-.260142E+03
