 vasp.5.4.4.18Apr17-6-g9f103f2a35 (build Jan 22 2020 12:49:05) complex          
  
 executed on Bebop BDW IPS19.0.5  date 2022.09.29  09:57:20
 running on   64 total cores
 distrk:  each k-point on   64 cores,    1 groups
 distr:  one band on NCORES_PER_BAND=   8 cores,    8 groups


--------------------------------------------------------------------------------------------------------


 INCAR:
 POTCAR:    PAW_PBE Li_sv 10Sep2004               
 POTCAR:    PAW_PBE P 06Sep2000                   
 POTCAR:    PAW_PBE S 06Sep2000                   
 POTCAR:    PAW_PBE Cl 06Sep2000                  
 POTCAR:    PAW_PBE Li_sv 10Sep2004               
   VRHFIN =Li: 1s2s2p                                                           
   LEXCH  = PE                                                                  
   EATOM  =   202.7858 eV,   14.9043 Ry                                         
                                                                                
   TITEL  = PAW_PBE Li_sv 10Sep2004                                             
   LULTRA =        F    use ultrasoft PP ?                                      
   IUNSCR =        0    unscreen: 0-lin 1-nonlin 2-no                           
   RPACOR =    0.000    partial core radius                                     
   POMASS =    7.010; ZVAL   =    3.000    mass and valenz                      
   RCORE  =    1.700    outmost cutoff radius                                   
   RWIGS  =    2.050; RWIGS  =    1.085    wigner-seitz radius (au A)           
   ENMAX  =  499.034; ENMIN  =  374.276 eV                                      
   ICORE  =        2    local potential                                         
   LCOR   =        T    correct aug charges                                     
   LPAW   =        T    paw PP                                                  
   EAUG   =  628.945                                                            
   RMAX   =    1.732    core radius for proj-oper                               
   RAUG   =    1.300    factor for augmentation sphere                          
   RDEP   =    1.728    radius for radial grids                                 
   RDEPT  =    1.329    core radius for aug-charge                              
                                                                                
   Atomic configuration                                                         
    4 entries                                                                   
     n  l   j            E        occ.                                          
     1  0  0.50       -51.8549   2.0000                                         
     2  0  0.50        -2.8742   1.0000                                         
     2  1  0.50        -1.3606   0.0000                                         
     3  2  1.50        -1.3606   0.0000                                         
   Description                                                                  
     l       E           TYP  RCUT    TYP  RCUT                                 
     0    -51.8548813     23  1.400                                             
     0     -2.8742052     23  1.700                                             
     1     -1.3605826     23  1.400                                             
     2     -1.3605826     23  1.400                                             
  local pseudopotential read in
  atomic valenz-charges read in
  non local Contribution for L=           0  read in
    real space projection operators read in
  non local Contribution for L=           0  read in
    real space projection operators read in
  non local Contribution for L=           1  read in
    real space projection operators read in
    PAW grid and wavefunctions read in
 
   number of l-projection  operators is LMAX  =           3
   number of lm-projection operators is LMMAX =           5
 
 POTCAR:    PAW_PBE P 06Sep2000                   
   VRHFIN =P : s2p3                                                             
   LEXCH  = PE                                                                  
   EATOM  =   176.0430 eV,   12.9388 Ry                                         
                                                                                
   TITEL  = PAW_PBE P 06Sep2000                                                 
   LULTRA =        F    use ultrasoft PP ?                                      
   IUNSCR =        1    unscreen: 0-lin 1-nonlin 2-no                           
   RPACOR =    1.500    partial core radius                                     
   POMASS =   30.974; ZVAL   =    5.000    mass and valenz                      
   RCORE  =    1.900    outmost cutoff radius                                   
   RWIGS  =    2.330; RWIGS  =    1.233    wigner-seitz radius (au A)           
   ENMAX  =  255.040; ENMIN  =  191.280 eV                                      
   ICORE  =        2    local potential                                         
   LCOR   =        T    correct aug charges                                     
   LPAW   =        T    paw PP                                                  
   EAUG   =  342.924                                                            
   DEXC   =    0.000                                                            
   RMAX   =    1.935    core radius for proj-oper                               
   RAUG   =    1.300    factor for augmentation sphere                          
   RDEP   =    1.931    radius for radial grids                                 
   RDEPT  =    1.794    core radius for aug-charge                              
                                                                                
   Atomic configuration                                                         
    6 entries                                                                   
     n  l   j            E        occ.                                          
     1  0  0.50     -2084.0982   2.0000                                         
     2  0  0.50      -173.9859   2.0000                                         
     2  1  1.50      -124.4865   6.0000                                         
     3  0  0.50       -13.9692   2.0000                                         
     3  1  0.50        -5.5067   3.0000                                         
     3  2  1.50        -5.4423   0.0000                                         
   Description                                                                  
     l       E           TYP  RCUT    TYP  RCUT                                 
     0    -13.9691527     23  1.900                                             
     0    -11.7794650     23  1.900                                             
     1     -5.5066937     23  1.900                                             
     1     -0.2556953     23  1.900                                             
     2     -5.4423304     23  1.900                                             
  local pseudopotential read in
  partial core-charges read in
  partial kinetic energy density read in
  atomic valenz-charges read in
  non local Contribution for L=           0  read in
    real space projection operators read in
  non local Contribution for L=           0  read in
    real space projection operators read in
  non local Contribution for L=           1  read in
    real space projection operators read in
  non local Contribution for L=           1  read in
    real space projection operators read in
    PAW grid and wavefunctions read in
 
   number of l-projection  operators is LMAX  =           4
   number of lm-projection operators is LMMAX =           8
 
 POTCAR:    PAW_PBE S 06Sep2000                   
   VRHFIN =S : s2p4                                                             
   LEXCH  = PE                                                                  
   EATOM  =   276.8230 eV,   20.3459 Ry                                         
                                                                                
   TITEL  = PAW_PBE S 06Sep2000                                                 
   LULTRA =        F    use ultrasoft PP ?                                      
   IUNSCR =        1    unscreen: 0-lin 1-nonlin 2-no                           
   RPACOR =    1.500    partial core radius                                     
   POMASS =   32.066; ZVAL   =    6.000    mass and valenz                      
   RCORE  =    1.900    outmost cutoff radius                                   
   RWIGS  =    2.200; RWIGS  =    1.164    wigner-seitz radius (au A)           
   ENMAX  =  258.689; ENMIN  =  194.016 eV                                      
   ICORE  =        2    local potential                                         
   LCOR   =        T    correct aug charges                                     
   LPAW   =        T    paw PP                                                  
   EAUG   =  335.092                                                            
   DEXC   =    0.000                                                            
   RMAX   =    1.942    core radius for proj-oper                               
   RAUG   =    1.300    factor for augmentation sphere                          
   RDEP   =    1.954    radius for radial grids                                 
   RDEPT  =    1.744    core radius for aug-charge                              
                                                                                
   Atomic configuration                                                         
    6 entries                                                                   
     n  l   j            E        occ.                                          
     1  0  0.50     -2405.8406   2.0000                                         
     2  0  0.50      -211.7007   2.0000                                         
     2  1  1.50      -156.4958   6.0000                                         
     3  0  0.50       -17.2562   2.0000                                         
     3  1  0.50        -7.0085   4.0000                                         
     3  2  1.50        -6.8029   0.0000                                         
   Description                                                                  
     l       E           TYP  RCUT    TYP  RCUT                                 
     0    -17.2561641     23  1.900                                             
     0    -15.8743224     23  1.900                                             
     1     -7.0085400     23  1.900                                             
     1     -2.7779785     23  1.900                                             
     2     -6.8029130     23  1.900                                             
  local pseudopotential read in
  partial core-charges read in
  partial kinetic energy density read in
  atomic valenz-charges read in
  non local Contribution for L=           0  read in
    real space projection operators read in
  non local Contribution for L=           0  read in
    real space projection operators read in
  non local Contribution for L=           1  read in
    real space projection operators read in
  non local Contribution for L=           1  read in
    real space projection operators read in
    PAW grid and wavefunctions read in
 
   number of l-projection  operators is LMAX  =           4
   number of lm-projection operators is LMMAX =           8
 
 POTCAR:    PAW_PBE Cl 06Sep2000                  
   VRHFIN =Cl: s2p5                                                             
   LEXCH  = PE                                                                  
   EATOM  =   409.7259 eV,   30.1140 Ry                                         
                                                                                
   TITEL  = PAW_PBE Cl 06Sep2000                                                
   LULTRA =        F    use ultrasoft PP ?                                      
   IUNSCR =        1    unscreen: 0-lin 1-nonlin 2-no                           
   RPACOR =    1.500    partial core radius                                     
   POMASS =   35.453; ZVAL   =    7.000    mass and valenz                      
   RCORE  =    1.900    outmost cutoff radius                                   
   RWIGS  =    2.100; RWIGS  =    1.111    wigner-seitz radius (au A)           
   ENMAX  =  262.472; ENMIN  =  196.854 eV                                      
   ICORE  =        2    local potential                                         
   LCOR   =        T    correct aug charges                                     
   LPAW   =        T    paw PP                                                  
   EAUG   =  356.192                                                            
   DEXC   =    0.000                                                            
   RMAX   =    1.945    core radius for proj-oper                               
   RAUG   =    1.300    factor for augmentation sphere                          
   RDEP   =    2.020    radius for radial grids                                 
   RDEPT  =    1.678    core radius for aug-charge                              
                                                                                
   Atomic configuration                                                         
    6 entries                                                                   
     n  l   j            E        occ.                                          
     1  0  0.50     -2751.1850   2.0000                                         
     2  0  0.50      -252.6861   2.0000                                         
     2  1  1.50      -191.6157   6.0000                                         
     3  0  0.50       -20.6916   2.0000                                         
     3  1  0.50        -8.5949   5.0000                                         
     3  2  1.50        -8.1635   0.0000                                         
   Description                                                                  
     l       E           TYP  RCUT    TYP  RCUT                                 
     0    -20.6915656     23  1.900                                             
     0    -22.0521482     23  1.900                                             
     1     -8.5948577     23  1.900                                             
     1     -5.3847331     23  1.900                                             
     2     -8.1634956     23  1.900                                             
  local pseudopotential read in
  partial core-charges read in
  partial kinetic energy density read in
  atomic valenz-charges read in
  non local Contribution for L=           0  read in
    real space projection operators read in
  non local Contribution for L=           0  read in
    real space projection operators read in
  non local Contribution for L=           1  read in
    real space projection operators read in
  non local Contribution for L=           1  read in
    real space projection operators read in
    PAW grid and wavefunctions read in
 
   number of l-projection  operators is LMAX  =           4
   number of lm-projection operators is LMMAX =           8
 

 ----------------------------------------------------------------------------- 
|                                                                             |
|  ADVICE TO THIS USER RUNNING 'VASP/VAMP'   (HEAR YOUR MASTER'S VOICE ...):  |
|                                                                             |
|      You have a (more or less) 'large supercell' and for larger cells       |
|      it might be more efficient to use real space projection opertators     |
|      So try LREAL= Auto  in the INCAR   file.                               |
|      Mind:          For very  accurate calculation you might also keep the  |
|      reciprocal projection scheme          (i.e. LREAL=.FALSE.)             |
|                                                                             |
 ----------------------------------------------------------------------------- 

  PAW_PBE Li_sv 10Sep2004               :
 energy of atom  1       EATOM= -202.7858
 kinetic energy error for atom=    0.0143 (will be added to EATOM!!)
  PAW_PBE P 06Sep2000                   :
 energy of atom  2       EATOM= -176.0430
 kinetic energy error for atom=    0.0013 (will be added to EATOM!!)
  PAW_PBE S 06Sep2000                   :
 energy of atom  3       EATOM= -276.8230
 kinetic energy error for atom=    0.0020 (will be added to EATOM!!)
  PAW_PBE Cl 06Sep2000                  :
 energy of atom  4       EATOM= -409.7259
 kinetic energy error for atom=    0.0030 (will be added to EATOM!!)
 
 
 POSCAR: New POSCAR file                         
  positions in cartesian coordinates
  No initial velocities read in
 exchange correlation table for  LEXCH =        8
   RHO(1)=    0.500       N(1)  =     2000
   RHO(2)=  100.500       N(2)  =     4000
 


--------------------------------------------------------------------------------------------------------


 ion  position               nearest neighbor table
   1  0.617  0.899  0.999-  54 2.24  51 2.33  59 2.59
   2  0.737  0.567  0.612-  61 2.30  40 2.34  55 2.41  47 2.57
   3  0.238  0.175  0.033-  48 2.39  50 2.47  59 2.54  44 2.64  56 2.65
   4  0.148  0.740  0.207-  65 2.36  49 2.45  31 2.54
   5  0.300  0.213  0.321-  60 2.53  53 2.62  50 2.67
   6  0.196  0.046  0.662-  63 2.31  41 2.48  36 2.59  39 2.68
   7  0.734  0.557  0.215-  54 2.37  46 2.50  49 2.59
   8  0.514  0.066  0.301-  53 2.30  56 2.42  64 2.42  37 2.49
   9  0.981  0.937  0.577-  40 2.39  52 2.47  63 2.49  39 2.56
  10  0.945  0.408  0.225-  46 2.49  62 2.50  50 2.54  44 2.61  49 2.65
  11  0.428  0.964  0.528-  53 2.36  39 2.50  58 2.58
  12  0.888  0.584  0.006-  46 2.58  65 2.60  47 2.61  33 2.66  54 2.70
  13  0.024  0.366  0.733-  55 2.30  41 2.45  48 2.52  45 2.53
  14  0.297  0.523  0.597-  45 2.27  61 2.33  60 2.54  34 2.55
  15  0.628  0.224  0.986-  57 2.45  51 2.48  46 2.49  56 2.58
  16  0.862  0.186  0.824-  51 2.29  28 2.45  55 2.51  48 2.51  52 2.66
  17  0.628  0.536  0.987-  54 2.36  46 2.52  43 2.53  47 2.57
  18  0.475  0.403  0.432-  60 2.39  53 2.39  61 2.46  42 2.49
  19  0.469  0.666  0.143-  54 2.41  42 2.45  43 2.57  37 2.59  27 2.60
  20  0.208  0.755  0.868-  63 2.42  65 2.45  45 2.52  43 2.62
  21  0.703  0.237  0.218-  46 2.34  64 2.42  62 2.43
  22  0.965  0.698  0.733-  63 2.38  40 2.54  47 2.60  45 2.66
  23  0.012  0.373  0.460-  41 2.44  62 2.49  60 2.51  35 2.55
  24  0.911  0.201  0.042-  46 2.33  51 2.36  48 2.46  50 2.61
  25  0.722  0.138  0.447-  64 2.35  52 2.38  62 2.43  53 2.45
  26  0.541  0.632  0.774-  61 2.45  47 2.48  58 2.51  43 2.61
  27  0.626  0.817  0.252-  54 2.34  64 2.43  19 2.60  37 2.61  42 2.67
  28  0.697  0.023  0.773-  51 2.38  16 2.45  58 2.56  57 2.62  52 2.62
  29  0.602  0.277  0.619-  61 2.42  57 2.44  53 2.51
  30  0.872  0.869  0.043-  65 2.31  51 2.31  54 2.48
  31  0.287  0.608  0.337-  60 2.12  42 2.13  34 2.33   4 2.54
  32  0.285  0.464  0.884-  43 2.09  45 2.17  33 2.28
  33  0.095  0.432  0.977-  48 2.13  44 2.19  32 2.28  12 2.66
  34  0.198  0.711  0.488-  39 2.03  31 2.33  35 2.34  14 2.55
  35  0.992  0.621  0.454-  40 2.09  49 2.09  34 2.34  23 2.55
  36  0.370  0.104  0.807-  57 2.07  38 2.11   6 2.59
  37  0.385  0.886  0.218-  59 2.12   8 2.49  19 2.59  27 2.61
  38  0.433  0.910  0.828-  36 2.11  58 2.12
  39  0.198  0.909  0.478-  34 2.03  11 2.50   9 2.56   6 2.68
  40  0.866  0.737  0.547-  35 2.09   2 2.34   9 2.39  22 2.54
  41  0.026  0.197  0.593-  52 2.11  23 2.44  13 2.45   6 2.48
  42  0.494  0.616  0.337-  31 2.13  19 2.45  18 2.49  27 2.67
  43  0.398  0.615  0.948-  32 2.09  17 2.53  19 2.57  26 2.61  20 2.62
  44  0.175  0.391  0.137-  50 2.10  33 2.19  10 2.61   3 2.64
  45  0.181  0.555  0.751-  32 2.17  14 2.27  20 2.52  13 2.53  22 2.66
  46  0.776  0.378  0.082-  24 2.33  21 2.34  15 2.49  10 2.49   7 2.50  17 2.52  12 2.58
  47  0.770  0.573  0.818-  55 2.06  26 2.48  17 2.57   2 2.57  22 2.60  12 2.61
  48  0.079  0.244  0.904-  33 2.13   3 2.39  24 2.46  16 2.51  13 2.52
  49  0.949  0.654  0.290-  35 2.09   4 2.45   7 2.59  10 2.65
  50  0.093  0.214  0.190-  44 2.10   3 2.47  10 2.54  24 2.61   5 2.67
  51  0.784  0.044  0.951-  16 2.29  30 2.31   1 2.33  24 2.36  28 2.38  15 2.48
  52  0.835  0.124  0.615-  41 2.11  25 2.38   9 2.47  28 2.62  16 2.66
  53  0.486  0.173  0.463-   8 2.30  11 2.36  18 2.39  25 2.45  29 2.51   5 2.62
  54  0.687  0.722  0.087-   1 2.24  27 2.34  17 2.36   7 2.37  19 2.41  30 2.48  12 2.70
  55  0.802  0.400  0.738-  47 2.06  13 2.30   2 2.41  16 2.51
  56  0.461  0.188  0.140-  59 2.06   8 2.42  15 2.58   3 2.65
  57  0.536  0.218  0.803-  36 2.07  29 2.44  15 2.45  28 2.62
  58  0.543  0.854  0.690-  38 2.12  26 2.51  28 2.56  11 2.58
  59  0.411  0.007  0.081-  56 2.06  37 2.12   3 2.54   1 2.59
  60  0.244  0.428  0.412-  31 2.12  18 2.39  23 2.51   5 2.53  14 2.54
  61  0.523  0.499  0.610-   2 2.30  14 2.33  29 2.42  26 2.45  18 2.46
  62  0.793  0.347  0.376-  25 2.43  21 2.43  23 2.49  10 2.50
  63  0.074  0.900  0.761-   6 2.31  22 2.38  20 2.42   9 2.49
  64  0.744  0.019  0.286-  25 2.35   8 2.42  21 2.42  27 2.43
  65  0.068  0.760  0.029-  30 2.31   4 2.36  20 2.45  12 2.60
 

IMPORTANT INFORMATION: All symmetrisations will be switched off!
NOSYMM: (Re-)initialisation of all symmetry stuff for point group C_1.

 
 
 KPOINTS: Regular mesh centered at Gamma          

Automatic generation of k-mesh.
Space group operators:
 irot       det(A)        alpha          n_x          n_y          n_z        tau_x        tau_y        tau_z
    1     1.000000     0.000000     1.000000     0.000000     0.000000     0.000000     0.000000     0.000000
 
 Subroutine IBZKPT returns following result:
 ===========================================
 
 Found      1 irreducible k-points:
 
 Following reciprocal coordinates:
            Coordinates               Weight
  0.000000  0.000000  0.000000      1.000000
 
 Following cartesian coordinates:
            Coordinates               Weight
  0.000000  0.000000  0.000000      1.000000
 


--------------------------------------------------------------------------------------------------------




 Dimension of arrays:
   k-points           NKPTS =      1   k-points in BZ     NKDIM =      1   number of bands    NBANDS=    184
   number of dos      NEDOS =    301   number of ions     NIONS =     65
   non local maximal  LDIM  =      4   non local SUM 2l+1 LMDIM =      8
   total plane-waves  NPLWV = 219520
   max r-space proj   IRMAX =      1   max aug-charges    IRDMAX=   5529
   dimension x,y,z NGX =    56 NGY =   56 NGZ =   70
   dimension x,y,z NGXF=   112 NGYF=  112 NGZF=  140
   support grid    NGXF=   112 NGYF=  112 NGZF=  140
   ions per type =              30   5  25   5
   NGX,Y,Z   is equivalent  to a cutoff of   9.08,  9.08,  9.42 a.u.
   NGXF,Y,Z  is equivalent  to a cutoff of  18.17, 18.17, 18.85 a.u.

 SYSTEM =  LPSC                                    
 POSCAR =  New POSCAR file                         

 Startparameter for this run:
   NWRITE =      2    write-flag & timer
   PREC   = normal    normal or accurate (medium, high low for compatibility)
   ISTART =      0    job   : 0-new  1-cont  2-samecut
   ICHARG =      2    charge: 1-file 2-atom 10-const
   ISPIN  =      1    spin polarized calculation?
   LNONCOLLINEAR =      F non collinear calculations
   LSORBIT =      F    spin-orbit coupling
   INIWAV =      1    electr: 0-lowe 1-rand  2-diag
   LASPH  =      F    aspherical Exc in radial PAW
   METAGGA=      F    non-selfconsistent MetaGGA calc.

 Electronic Relaxation 1
   ENCUT  =  500.0 eV  36.75 Ry    6.06 a.u.  18.69 18.69 22.52*2*pi/ulx,y,z
   ENINI  =  500.0     initial cutoff
   ENAUG  =  628.9 eV  augmentation charge cutoff
   NELM   =    100;   NELMIN=  2; NELMDL=-12     # of ELM steps 
   EDIFF  = 0.1E-05   stopping-criterion for ELM
   LREAL  =      F    real-space projection
   NLSPLINE    = F    spline interpolate recip. space projectors
   LCOMPAT=      F    compatible to vasp.4.4
   GGA_COMPAT  = T    GGA compatible to vasp.4.4-vasp.4.6
   LMAXPAW     = -100 max onsite density
   LMAXMIX     =    2 max onsite mixed and CHGCAR
   VOSKOWN=      0    Vosko Wilk Nusair interpolation
   ROPT   =    0.00000   0.00000   0.00000   0.00000
 Ionic relaxation
   EDIFFG = -.1E-01   stopping-criterion for IOM
   NSW    =      1    number of steps for IOM
   NBLOCK =      1;   KBLOCK =      1    inner block; outer block 
   IBRION =      2    ionic relax: 0-MD 1-quasi-New 2-CG
   NFREE  =      1    steps in history (QN), initial steepest desc. (CG)
   ISIF   =      2    stress and relaxation
   IWAVPR =     11    prediction:  0-non 1-charg 2-wave 3-comb
   ISYM   =      0    0-nonsym 1-usesym 2-fastsym
   LCORR  =      T    Harris-Foulkes like correction to forces

   POTIM  = 0.5000    time-step for ionic-motion
   TEIN   =    0.0    initial temperature
   TEBEG  =    0.0;   TEEND  =   0.0 temperature during run
   SMASS  =  -3.00    Nose mass-parameter (am)
   estimated Nose-frequenzy (Omega)   =  0.10E-29 period in steps =****** mass=  -0.240E-26a.u.
   SCALEE = 1.0000    scale energy and forces
   NPACO  =    256;   APACO  = 16.0  distance and # of slots for P.C.
   PSTRESS=    0.0 pullay stress

  Mass of Ions in am
   POMASS =   7.01 30.97 32.07 35.45
  Ionic Valenz
   ZVAL   =   3.00  5.00  6.00  7.00
  Atomic Wigner-Seitz radii
   RWIGS  =  -1.00 -1.00 -1.00 -1.00
  virtual crystal weights 
   VCA    =   1.00  1.00  1.00  1.00
   NELECT =     300.0000    total number of electrons
   NUPDOWN=      -1.0000    fix difference up-down

 DOS related values:
   EMIN   =  10.00;   EMAX   =-10.00  energy-range for DOS
   EFERMI =   0.00
   ISMEAR =     0;   SIGMA  =   0.05  broadening in eV -4-tet -1-fermi 0-gaus

 Electronic relaxation 2 (details)
   IALGO  =     48    algorithm
   LDIAG  =      T    sub-space diagonalisation (order eigenvalues)
   LSUBROT=      F    optimize rotation matrix (better conditioning)
   TURBO    =      0    0=normal 1=particle mesh
   IRESTART =      0    0=no restart 2=restart with 2 vectors
   NREBOOT  =      0    no. of reboots
   NMIN     =      0    reboot dimension
   EREF     =   0.00    reference energy to select bands
   IMIX   =      4    mixing-type and parameters
     AMIX     =   0.40;   BMIX     =  1.00
     AMIX_MAG =   1.60;   BMIX_MAG =  1.00
     AMIN     =   0.10
     WC   =   100.;   INIMIX=   1;  MIXPRE=   1;  MAXMIX= -45

 Intra band minimization:
   WEIMIN = 0.0010     energy-eigenvalue tresh-hold
   EBREAK =  0.14E-08  absolut break condition
   DEPER  =   0.30     relativ break condition  

   TIME   =   0.40     timestep for ELM

  volume/ion in A,a.u.               =      19.96       134.71
  Fermi-wavevector in a.u.,A,eV,Ry     =   1.004794  1.898785 13.736591  1.009611
  Thomas-Fermi vector in A             =   2.137432
 
 Write flags
   LWAVE        =      F    write WAVECAR
   LDOWNSAMPLE  =      F    k-point downsampling of WAVECAR
   LCHARG       =      F    write CHGCAR
   LVTOT        =      F    write LOCPOT, total local potential
   LVHAR        =      F    write LOCPOT, Hartree potential only
   LELF         =      F    write electronic localiz. function (ELF)
   LORBIT       =     11    0 simple, 1 ext, 2 COOP (PROOUT), +10 PAW based schemes


 Dipole corrections
   LMONO  =      F    monopole corrections only (constant potential shift)
   LDIPOL =      F    correct potential (dipole corrections)
   IDIPOL =      0    1-x, 2-y, 3-z, 4-all directions 
   EPSILON=  1.0000000 bulk dielectric constant

 Exchange correlation treatment:
   GGA     =    --    GGA type
   LEXCH   =     8    internal setting for exchange type
   VOSKOWN=      0    Vosko Wilk Nusair interpolation
   LHFCALC =     F    Hartree Fock is set to
   LHFONE  =     F    Hartree Fock one center treatment
   AEXX    =    0.0000 exact exchange contribution

 Linear response parameters
   LEPSILON=     F    determine dielectric tensor
   LRPA    =     F    only Hartree local field effects (RPA)
   LNABLA  =     F    use nabla operator in PAW spheres
   LVEL    =     F    velocity operator in full k-point grid
   LINTERFAST=   F  fast interpolation
   KINTER  =     0    interpolate to denser k-point grid
   CSHIFT  =0.1000    complex shift for real part using Kramers Kronig
   OMEGAMAX=  -1.0    maximum frequency
   DEG_THRESHOLD= 0.2000000E-02 threshold for treating states as degnerate
   RTIME   =   -0.100 relaxation time in fs
  (WPLASMAI=    0.000 imaginary part of plasma frequency in eV, 0.658/RTIME)
   DFIELD  = 0.0000000 0.0000000 0.0000000 field for delta impulse in time
 
 Orbital magnetization related:
   ORBITALMAG=     F  switch on orbital magnetization
   LCHIMAG   =     F  perturbation theory with respect to B field
   DQ        =  0.001000  dq finite difference perturbation B field
   LLRAUG    =     F  two centre corrections for induced B field



--------------------------------------------------------------------------------------------------------


 conjugate gradient relaxation of ions
 charge density and potential will be updated during run
 non-spin polarized calculation
 RMM-DIIS sequential band-by-band
 perform sub-space diagonalisation
    before iterative eigenvector-optimisation
 modified Broyden-mixing scheme, WC =      100.0
 initial mixing is a Kerker type mixing with AMIX =  0.4000 and BMIX =      1.0000
 Hartree-type preconditioning will be used
 using additional bands           34
 reciprocal scheme for non local part
 use partial core corrections
 calculate Harris-corrections to forces 
   (improved forces if not selfconsistent)
 use gradient corrections 
 use of overlap-Matrix (Vanderbilt PP)
 Gauss-broadening in eV      SIGMA  =   0.05


--------------------------------------------------------------------------------------------------------


  energy-cutoff  :      500.00
  volume of cell :     1297.52
      direct lattice vectors                 reciprocal lattice vectors
    10.250000000  0.000000000  0.000000000     0.097560976  0.000000000  0.000000000
     0.000000000 10.250000000  0.000000000     0.000000000  0.097560976  0.000000000
     0.000000000  0.000000000 12.350000000     0.000000000  0.000000000  0.080971660

  length of vectors
    10.250000000 10.250000000 12.350000000     0.097560976  0.097560976  0.080971660


 
 k-points in units of 2pi/SCALE and weight: Regular mesh centered at Gamma          
   0.00000000  0.00000000  0.00000000       1.000
 
 k-points in reciprocal lattice and weights: Regular mesh centered at Gamma          
   0.00000000  0.00000000  0.00000000       1.000
 
 position of ions in fractional coordinates (direct lattice) 
   0.61728585  0.89926829  0.99857490
   0.73694732  0.56669171  0.61228826
   0.23767122  0.17501951  0.03302834
   0.14770927  0.74004488  0.20695142
   0.30035122  0.21346537  0.32137004
   0.19593951  0.04620595  0.66205587
   0.73404195  0.55664390  0.21535628
   0.51384390  0.06584956  0.30101943
   0.98110244  0.93692390  0.57720972
   0.94466341  0.40800683  0.22506478
   0.42815415  0.96372683  0.52759433
   0.88766537  0.58370439  0.00557081
   0.02381112  0.36629756  0.73273684
   0.29703415  0.52344098  0.59692794
   0.62825463  0.22432098  0.98604049
   0.86164000  0.18555902  0.82357085
   0.62765659  0.53647024  0.98651012
   0.47464683  0.40304878  0.43191741
   0.46932976  0.66555707  0.14348988
   0.20815610  0.75524195  0.86757085
   0.70289951  0.23682439  0.21813198
   0.96515220  0.69801659  0.73280405
   0.01223571  0.37254439  0.45972632
   0.91093171  0.20106049  0.04223368
   0.72176488  0.13802146  0.44725344
   0.54102341  0.63165659  0.77410607
   0.62583512  0.81676293  0.25198947
   0.69730732  0.02263327  0.77294089
   0.60238537  0.27702732  0.61938462
   0.87212293  0.86903902  0.04343320
   0.28701463  0.60822439  0.33739676
   0.28471220  0.46430927  0.88403239
   0.09501951  0.43227415  0.97684211
   0.19796390  0.71064780  0.48829717
   0.99190244  0.62067220  0.45381457
   0.36972488  0.10392683  0.80675061
   0.38484878  0.88637268  0.21774413
   0.43324000  0.91012683  0.82772470
   0.19800390  0.90862244  0.47786316
   0.86641951  0.73687122  0.54661215
   0.02622137  0.19740976  0.59277085
   0.49438634  0.61642146  0.33687206
   0.39798244  0.61540195  0.94846154
   0.17512195  0.39060195  0.13714656
   0.18088488  0.55500488  0.75117004
   0.77597463  0.37791707  0.08219919
   0.76989756  0.57340098  0.81825101
   0.07878985  0.24431707  0.90414575
   0.94895902  0.65387024  0.29029150
   0.09342332  0.21386829  0.18966316
   0.78359512  0.04382146  0.95106073
   0.83549659  0.12405659  0.61503158
   0.48605171  0.17282634  0.46324291
   0.68723122  0.72244780  0.08743563
   0.80211610  0.39973073  0.73818462
   0.46108683  0.18844390  0.13979433
   0.53640976  0.21832780  0.80276113
   0.54270634  0.85408488  0.68963725
   0.41124000  0.00744147  0.08076348
   0.24436195  0.42751415  0.41211012
   0.52292195  0.49862439  0.60979919
   0.79341073  0.34696780  0.37573603
   0.07352644  0.90025561  0.76138057
   0.74403707  0.01861902  0.28581377
   0.06799717  0.75996293  0.02861798
 
 position of ions in cartesian coordinates  (Angst):
   6.32718000  9.21750000 12.33240000
   7.55371000  5.80859000  7.56176000
   2.43613000  1.79395000  0.40790000
   1.51402000  7.58546000  2.55585000
   3.07860000  2.18802000  3.96892000
   2.00838000  0.47361100  8.17639000
   7.52393000  5.70560000  2.65965000
   5.26690000  0.67495800  3.71759000
  10.05630000  9.60347000  7.12854000
   9.68280000  4.18207000  2.77955000
   4.38858000  9.87820000  6.51579000
   9.09857000  5.98297000  0.06879950
   0.24406400  3.75455000  9.04930000
   3.04460000  5.36527000  7.37206000
   6.43961000  2.29929000 12.17760000
   8.83181000  1.90198000 10.17110000
   6.43348000  5.49882000 12.18340000
   4.86513000  4.13125000  5.33418000
   4.81063000  6.82196000  1.77210000
   2.13360000  7.74123000 10.71450000
   7.20472000  2.42745000  2.69393000
   9.89281000  7.15467000  9.05013000
   0.12541600  3.81858000  5.67762000
   9.33705000  2.06087000  0.52158600
   7.39809000  1.41472000  5.52358000
   5.54549000  6.47448000  9.56021000
   6.41481000  8.37182000  3.11207000
   7.14740000  0.23199100  9.54582000
   6.17445000  2.83953000  7.64940000
   8.93926000  8.90765000  0.53640000
   2.94190000  6.23430000  4.16685000
   2.91830000  4.75917000 10.91780000
   0.97395000  4.43081000 12.06400000
   2.02913000  7.28414000  6.03047000
  10.16700000  6.36189000  5.60461000
   3.78968000  1.06525000  9.96337000
   3.94470000  9.08532000  2.68914000
   4.44071000  9.32880000 10.22240000
   2.02954000  9.31338000  5.90161000
   8.88080000  7.55293000  6.75066000
   0.26876900  2.02345000  7.32072000
   5.06746000  6.31832000  4.16037000
   4.07932000  6.30787000 11.71350000
   1.79500000  4.00367000  1.69376000
   1.85407000  5.68880000  9.27695000
   7.95374000  3.87365000  1.01516000
   7.89145000  5.87736000 10.10540000
   0.80759600  2.50425000 11.16620000
   9.72683000  6.70217000  3.58510000
   0.95758900  2.19215000  2.34234000
   8.03185000  0.44917000 11.74560000
   8.56384000  1.27158000  7.59564000
   4.98203000  1.77147000  5.72105000
   7.04412000  7.40509000  1.07983000
   8.22169000  4.09724000  9.11658000
   4.72614000  1.93155000  1.72646000
   5.49820000  2.23786000  9.91410000
   5.56274000  8.75437000  8.51702000
   4.21521000  0.07627510  0.99742900
   2.50471000  4.38202000  5.08956000
   5.35995000  5.11090000  7.53102000
   8.13246000  3.55642000  4.64034000
   0.75364600  9.22762000  9.40305000
   7.62638000  0.19084500  3.52980000
   0.69697100  7.78962000  0.35343200
 


--------------------------------------------------------------------------------------------------------


 k-point  1 :   0.0000 0.0000 0.0000  plane waves:   33049

 maximum and minimum number of plane-waves per node :      4138     4129

 maximum number of plane-waves:     33049
 maximum index in each direction: 
   IXMAX=   18   IYMAX=   18   IZMAX=   22
   IXMIN=  -18   IYMIN=  -18   IZMIN=  -22


 parallel 3D FFT for wavefunctions:
    minimum data exchange during FFTs selected (reduces bandwidth)
 parallel 3D FFT for charge:
    minimum data exchange during FFTs selected (reduces bandwidth)


 total amount of memory used by VASP MPI-rank0    42204. kBytes
=======================================================================

   base      :      30000. kBytes
   nonl-proj :       5360. kBytes
   fftplans  :       1886. kBytes
   grid      :       3386. kBytes
   one-center:         27. kBytes
   wavefun   :       1545. kBytes
 
     INWAV:  cpu time    0.0001: real time    0.0001
 Broyden mixing: mesh for mixing (old mesh)
   NGX = 37   NGY = 37   NGZ = 45
  (NGX  =112   NGY  =112   NGZ  =140)
  gives a total of  61605 points

 initial charge density was supplied:
 charge density of overlapping atoms calculated
 number of electron     300.0000000 magnetization 
 keeping initial charge density in first step


--------------------------------------------------------------------------------------------------------


 Maximum index for augmentation-charges          351 (set IRDMAX)


--------------------------------------------------------------------------------------------------------


 First call to EWALD:  gamma=   0.163
 Maximum number of real-space cells 3x 3x 2
 Maximum number of reciprocal cells 3x 3x 3

    FEWALD:  cpu time    0.0089: real time    0.0093


--------------------------------------- Iteration      1(   1)  ---------------------------------------


    POTLOK:  cpu time    0.0865: real time    0.1049
    SETDIJ:  cpu time    0.0150: real time    0.0177
    EDDIAG:  cpu time    0.2482: real time    0.2636
  RMM-DIIS:  cpu time    0.3390: real time    0.3416
    ORTHCH:  cpu time    0.0203: real time    0.0202
       DOS:  cpu time    0.0025: real time    0.0053
    --------------------------------------------
      LOOP:  cpu time    0.7117: real time    0.7560

 eigenvalue-minimisations  :   184
 total energy-change (2. order) :-0.1135776E+04  (-0.1468488E+05)
 number of electron     300.0000000 magnetization 
 augmentation part      300.0000000 magnetization 

 Free energy of the ion-electron system (eV)
  ---------------------------------------------------
  alpha Z        PSCENC =       256.70245505
  Ewald energy   TEWEN  =     -9939.26450223
  -Hartree energ DENC   =     -3334.42216604
  -exchange      EXHF   =         0.00000000
  -V(xc)+E(xc)   XCENC  =       791.59961493
  PAW double counting   =     10155.13001117   -10497.29644279
  entropy T*S    EENTRO =        -0.04322467
  eigenvalues    EBANDS =     -4500.67697161
  atomic energy  EATOM  =     15932.49537490
  Solvation  Ediel_sol  =         0.00000000
  ---------------------------------------------------
  free energy    TOTEN  =     -1135.77585129 eV

  energy without entropy =    -1135.73262662  energy(sigma->0) =    -1135.75423896


--------------------------------------------------------------------------------------------------------




--------------------------------------- Iteration      1(   2)  ---------------------------------------


    EDDIAG:  cpu time    0.1897: real time    0.1920
  RMM-DIIS:  cpu time    0.3260: real time    0.3266
    ORTHCH:  cpu time    0.0206: real time    0.0206
       DOS:  cpu time    0.0010: real time    0.0010
    --------------------------------------------
      LOOP:  cpu time    0.5372: real time    0.5377

 eigenvalue-minimisations  :   184
 total energy-change (2. order) : 0.1879167E+04  (-0.2299244E+04)
 number of electron     300.0000000 magnetization 
 augmentation part      300.0000000 magnetization 

 Free energy of the ion-electron system (eV)
  ---------------------------------------------------
  alpha Z        PSCENC =       256.70245505
  Ewald energy   TEWEN  =     -9939.26450223
  -Hartree energ DENC   =     -3334.42216604
  -exchange      EXHF   =         0.00000000
  -V(xc)+E(xc)   XCENC  =       791.59961493
  PAW double counting   =     10155.13001117   -10497.29644279
  entropy T*S    EENTRO =        -0.03809544
  eigenvalues    EBANDS =     -2621.51527206
  atomic energy  EATOM  =     15932.49537490
  Solvation  Ediel_sol  =         0.00000000
  ---------------------------------------------------
  free energy    TOTEN  =       743.39097749 eV

  energy without entropy =      743.42907293  energy(sigma->0) =      743.41002521


--------------------------------------------------------------------------------------------------------




--------------------------------------- Iteration      1(   3)  ---------------------------------------


    EDDIAG:  cpu time    0.1872: real time    0.1882
  RMM-DIIS:  cpu time    0.3279: real time    0.3276
    ORTHCH:  cpu time    0.0205: real time    0.0205
       DOS:  cpu time    0.0010: real time    0.0010
    --------------------------------------------
      LOOP:  cpu time    0.5365: real time    0.5373

 eigenvalue-minimisations  :   184
 total energy-change (2. order) :-0.5074842E+03  (-0.7314607E+03)
 number of electron     300.0000000 magnetization 
 augmentation part      300.0000000 magnetization 

 Free energy of the ion-electron system (eV)
  ---------------------------------------------------
  alpha Z        PSCENC =       256.70245505
  Ewald energy   TEWEN  =     -9939.26450223
  -Hartree energ DENC   =     -3334.42216604
  -exchange      EXHF   =         0.00000000
  -V(xc)+E(xc)   XCENC  =       791.59961493
  PAW double counting   =     10155.13001117   -10497.29644279
  entropy T*S    EENTRO =        -0.01303265
  eigenvalues    EBANDS =     -3129.02452080
  atomic energy  EATOM  =     15932.49537490
  Solvation  Ediel_sol  =         0.00000000
  ---------------------------------------------------
  free energy    TOTEN  =       235.90679154 eV

  energy without entropy =      235.91982419  energy(sigma->0) =      235.91330787


--------------------------------------------------------------------------------------------------------




--------------------------------------- Iteration      1(   4)  ---------------------------------------


    EDDIAG:  cpu time    0.1852: real time    0.1858
  RMM-DIIS:  cpu time    0.3279: real time    0.3277
    ORTHCH:  cpu time    0.0202: real time    0.0202
       DOS:  cpu time    0.0010: real time    0.0010
    --------------------------------------------
      LOOP:  cpu time    0.5343: real time    0.5347

 eigenvalue-minimisations  :   184
 total energy-change (2. order) :-0.2557740E+03  (-0.2585164E+03)
 number of electron     300.0000000 magnetization 
 augmentation part      300.0000000 magnetization 

 Free energy of the ion-electron system (eV)
  ---------------------------------------------------
  alpha Z        PSCENC =       256.70245505
  Ewald energy   TEWEN  =     -9939.26450223
  -Hartree energ DENC   =     -3334.42216604
  -exchange      EXHF   =         0.00000000
  -V(xc)+E(xc)   XCENC  =       791.59961493
  PAW double counting   =     10155.13001117   -10497.29644279
  entropy T*S    EENTRO =        -0.04940930
  eigenvalues    EBANDS =     -3384.76217631
  atomic energy  EATOM  =     15932.49537490
  Solvation  Ediel_sol  =         0.00000000
  ---------------------------------------------------
  free energy    TOTEN  =       -19.86724062 eV

  energy without entropy =      -19.81783132  energy(sigma->0) =      -19.84253597


--------------------------------------------------------------------------------------------------------




--------------------------------------- Iteration      1(   5)  ---------------------------------------


    EDDIAG:  cpu time    0.1859: real time    0.1863
  RMM-DIIS:  cpu time    0.3271: real time    0.3277
    ORTHCH:  cpu time    0.0201: real time    0.0201
       DOS:  cpu time    0.0007: real time    0.0007
    --------------------------------------------
      LOOP:  cpu time    0.5339: real time    0.5348

 eigenvalue-minimisations  :   184
 total energy-change (2. order) :-0.1119002E+03  (-0.1020586E+03)
 number of electron     300.0000000 magnetization 
 augmentation part      300.0000000 magnetization 

 Free energy of the ion-electron system (eV)
  ---------------------------------------------------
  alpha Z        PSCENC =       256.70245505
  Ewald energy   TEWEN  =     -9939.26450223
  -Hartree energ DENC   =     -3334.42216604
  -exchange      EXHF   =         0.00000000
  -V(xc)+E(xc)   XCENC  =       791.59961493
  PAW double counting   =     10155.13001117   -10497.29644279
  entropy T*S    EENTRO =        -0.00000000
  eigenvalues    EBANDS =     -3496.71180141
  atomic energy  EATOM  =     15932.49537490
  Solvation  Ediel_sol  =         0.00000000
  ---------------------------------------------------
  free energy    TOTEN  =      -131.76745641 eV

  energy without entropy =     -131.76745641  energy(sigma->0) =     -131.76745641


--------------------------------------------------------------------------------------------------------




--------------------------------------- Iteration      1(   6)  ---------------------------------------


    EDDIAG:  cpu time    0.1832: real time    0.1832
  RMM-DIIS:  cpu time    0.3273: real time    0.3273
    ORTHCH:  cpu time    0.0206: real time    0.0206
       DOS:  cpu time    0.0007: real time    0.0007
    --------------------------------------------
      LOOP:  cpu time    0.5318: real time    0.5318

 eigenvalue-minimisations  :   184
 total energy-change (2. order) :-0.4553686E+02  (-0.4273272E+02)
 number of electron     300.0000000 magnetization 
 augmentation part      300.0000000 magnetization 

 Free energy of the ion-electron system (eV)
  ---------------------------------------------------
  alpha Z        PSCENC =       256.70245505
  Ewald energy   TEWEN  =     -9939.26450223
  -Hartree energ DENC   =     -3334.42216604
  -exchange      EXHF   =         0.00000000
  -V(xc)+E(xc)   XCENC  =       791.59961493
  PAW double counting   =     10155.13001117   -10497.29644279
  entropy T*S    EENTRO =        -0.00000000
  eigenvalues    EBANDS =     -3542.24866323
  atomic energy  EATOM  =     15932.49537490
  Solvation  Ediel_sol  =         0.00000000
  ---------------------------------------------------
  free energy    TOTEN  =      -177.30431824 eV

  energy without entropy =     -177.30431824  energy(sigma->0) =     -177.30431824


--------------------------------------------------------------------------------------------------------




--------------------------------------- Iteration      1(   7)  ---------------------------------------


    EDDIAG:  cpu time    0.1823: real time    0.1822
  RMM-DIIS:  cpu time    0.3257: real time    0.3262
    ORTHCH:  cpu time    0.0208: real time    0.0208
       DOS:  cpu time    0.0006: real time    0.0006
    --------------------------------------------
      LOOP:  cpu time    0.5295: real time    0.5299

 eigenvalue-minimisations  :   184
 total energy-change (2. order) :-0.2177801E+02  (-0.2097948E+02)
 number of electron     300.0000000 magnetization 
 augmentation part      300.0000000 magnetization 

 Free energy of the ion-electron system (eV)
  ---------------------------------------------------
  alpha Z        PSCENC =       256.70245505
  Ewald energy   TEWEN  =     -9939.26450223
  -Hartree energ DENC   =     -3334.42216604
  -exchange      EXHF   =         0.00000000
  -V(xc)+E(xc)   XCENC  =       791.59961493
  PAW double counting   =     10155.13001117   -10497.29644279
  entropy T*S    EENTRO =        -0.00000000
  eigenvalues    EBANDS =     -3564.02667182
  atomic energy  EATOM  =     15932.49537490
  Solvation  Ediel_sol  =         0.00000000
  ---------------------------------------------------
  free energy    TOTEN  =      -199.08232682 eV

  energy without entropy =     -199.08232682  energy(sigma->0) =     -199.08232682


--------------------------------------------------------------------------------------------------------




--------------------------------------- Iteration      1(   8)  ---------------------------------------


    EDDIAG:  cpu time    0.1820: real time    0.1819
  RMM-DIIS:  cpu time    0.3265: real time    0.3265
    ORTHCH:  cpu time    0.0204: real time    0.0204
       DOS:  cpu time    0.0007: real time    0.0006
    --------------------------------------------
      LOOP:  cpu time    0.5295: real time    0.5294

 eigenvalue-minimisations  :   184
 total energy-change (2. order) :-0.1272232E+02  (-0.1201925E+02)
 number of electron     300.0000000 magnetization 
 augmentation part      300.0000000 magnetization 

 Free energy of the ion-electron system (eV)
  ---------------------------------------------------
  alpha Z        PSCENC =       256.70245505
  Ewald energy   TEWEN  =     -9939.26450223
  -Hartree energ DENC   =     -3334.42216604
  -exchange      EXHF   =         0.00000000
  -V(xc)+E(xc)   XCENC  =       791.59961493
  PAW double counting   =     10155.13001117   -10497.29644279
  entropy T*S    EENTRO =        -0.00000000
  eigenvalues    EBANDS =     -3576.74899335
  atomic energy  EATOM  =     15932.49537490
  Solvation  Ediel_sol  =         0.00000000
  ---------------------------------------------------
  free energy    TOTEN  =      -211.80464836 eV

  energy without entropy =     -211.80464836  energy(sigma->0) =     -211.80464836


--------------------------------------------------------------------------------------------------------




--------------------------------------- Iteration      1(   9)  ---------------------------------------


    EDDIAG:  cpu time    0.1811: real time    0.1818
  RMM-DIIS:  cpu time    1.1192: real time    1.1198
    ORTHCH:  cpu time    0.0298: real time    0.0298
       DOS:  cpu time    0.0007: real time    0.0007
    --------------------------------------------
      LOOP:  cpu time    1.3308: real time    1.3321

 eigenvalue-minimisations  :   668
 total energy-change (2. order) :-0.3412183E+02  (-0.3389415E+02)
 number of electron     300.0000000 magnetization 
 augmentation part      300.0000000 magnetization 

 Free energy of the ion-electron system (eV)
  ---------------------------------------------------
  alpha Z        PSCENC =       256.70245505
  Ewald energy   TEWEN  =     -9939.26450223
  -Hartree energ DENC   =     -3334.42216604
  -exchange      EXHF   =         0.00000000
  -V(xc)+E(xc)   XCENC  =       791.59961493
  PAW double counting   =     10155.13001117   -10497.29644279
  entropy T*S    EENTRO =        -0.00000000
  eigenvalues    EBANDS =     -3610.87082078
  atomic energy  EATOM  =     15932.49537490
  Solvation  Ediel_sol  =         0.00000000
  ---------------------------------------------------
  free energy    TOTEN  =      -245.92647578 eV

  energy without entropy =     -245.92647578  energy(sigma->0) =     -245.92647578


--------------------------------------------------------------------------------------------------------




--------------------------------------- Iteration      1(  10)  ---------------------------------------


    EDDIAG:  cpu time    0.1958: real time    0.1957
  RMM-DIIS:  cpu time    1.3210: real time    1.3220
    ORTHCH:  cpu time    0.0266: real time    0.0266
       DOS:  cpu time    0.0007: real time    0.0007
    --------------------------------------------
      LOOP:  cpu time    1.5441: real time    1.5449

 eigenvalue-minimisations  :   664
 total energy-change (2. order) :-0.1726090E+02  (-0.1699214E+02)
 number of electron     300.0000000 magnetization 
 augmentation part      300.0000000 magnetization 

 Free energy of the ion-electron system (eV)
  ---------------------------------------------------
  alpha Z        PSCENC =       256.70245505
  Ewald energy   TEWEN  =     -9939.26450223
  -Hartree energ DENC   =     -3334.42216604
  -exchange      EXHF   =         0.00000000
  -V(xc)+E(xc)   XCENC  =       791.59961493
  PAW double counting   =     10155.13001117   -10497.29644279
  entropy T*S    EENTRO =        -0.00000000
  eigenvalues    EBANDS =     -3628.13172023
  atomic energy  EATOM  =     15932.49537490
  Solvation  Ediel_sol  =         0.00000000
  ---------------------------------------------------
  free energy    TOTEN  =      -263.18737524 eV

  energy without entropy =     -263.18737524  energy(sigma->0) =     -263.18737524


--------------------------------------------------------------------------------------------------------




--------------------------------------- Iteration      1(  11)  ---------------------------------------


    EDDIAG:  cpu time    0.1841: real time    0.1845
  RMM-DIIS:  cpu time    1.1057: real time    1.1060
    ORTHCH:  cpu time    0.0265: real time    0.0265
       DOS:  cpu time    0.0007: real time    0.0007
    --------------------------------------------
      LOOP:  cpu time    1.3171: real time    1.3177

 eigenvalue-minimisations  :   642
 total energy-change (2. order) :-0.3886437E+01  (-0.3914109E+01)
 number of electron     300.0000000 magnetization 
 augmentation part      300.0000000 magnetization 

 Free energy of the ion-electron system (eV)
  ---------------------------------------------------
  alpha Z        PSCENC =       256.70245505
  Ewald energy   TEWEN  =     -9939.26450223
  -Hartree energ DENC   =     -3334.42216604
  -exchange      EXHF   =         0.00000000
  -V(xc)+E(xc)   XCENC  =       791.59961493
  PAW double counting   =     10155.13001117   -10497.29644279
  entropy T*S    EENTRO =        -0.00000000
  eigenvalues    EBANDS =     -3632.01815714
  atomic energy  EATOM  =     15932.49537490
  Solvation  Ediel_sol  =         0.00000000
  ---------------------------------------------------
  free energy    TOTEN  =      -267.07381215 eV

  energy without entropy =     -267.07381215  energy(sigma->0) =     -267.07381215


--------------------------------------------------------------------------------------------------------




--------------------------------------- Iteration      1(  12)  ---------------------------------------


    EDDIAG:  cpu time    0.1865: real time    0.1863
  RMM-DIIS:  cpu time    1.0872: real time    1.0875
    ORTHCH:  cpu time    0.0262: real time    0.0262
       DOS:  cpu time    0.0007: real time    0.0007
    CHARGE:  cpu time    0.0471: real time    0.0545
    MIXING:  cpu time    0.0078: real time    0.0171
    --------------------------------------------
      LOOP:  cpu time    1.3556: real time    1.3724

 eigenvalue-minimisations  :   634
 total energy-change (2. order) :-0.2101417E+01  (-0.2095606E+01)
 number of electron     300.0000234 magnetization 
 augmentation part        2.1445096 magnetization 

 Broyden mixing:
  rms(total) = 0.37465E+01    rms(broyden)= 0.37449E+01
  rms(prec ) = 0.39960E+01
  weight for this iteration     100.00

 Free energy of the ion-electron system (eV)
  ---------------------------------------------------
  alpha Z        PSCENC =       256.70245505
  Ewald energy   TEWEN  =     -9939.26450223
  -Hartree energ DENC   =     -3334.42216604
  -exchange      EXHF   =         0.00000000
  -V(xc)+E(xc)   XCENC  =       791.59961493
  PAW double counting   =     10155.13001117   -10497.29644279
  entropy T*S    EENTRO =        -0.00000000
  eigenvalues    EBANDS =     -3634.11957399
  atomic energy  EATOM  =     15932.49537490
  Solvation  Ediel_sol  =         0.00000000
  ---------------------------------------------------
  free energy    TOTEN  =      -269.17522900 eV

  energy without entropy =     -269.17522900  energy(sigma->0) =     -269.17522900


--------------------------------------------------------------------------------------------------------




--------------------------------------- Iteration      1(  13)  ---------------------------------------


    POTLOK:  cpu time    0.0693: real time    0.0696
    SETDIJ:  cpu time    0.0147: real time    0.0147
    EDDIAG:  cpu time    0.1801: real time    0.1800
  RMM-DIIS:  cpu time    0.8489: real time    0.8494
    ORTHCH:  cpu time    0.0253: real time    0.0253
       DOS:  cpu time    0.0009: real time    0.0009
    CHARGE:  cpu time    0.0420: real time    0.0420
    MIXING:  cpu time    0.0044: real time    0.0067
    --------------------------------------------
      LOOP:  cpu time    1.1856: real time    1.1886

 eigenvalue-minimisations  :   492
 total energy-change (2. order) : 0.8463952E+01  (-0.2134082E+01)
 number of electron     300.0000230 magnetization 
 augmentation part        2.2836488 magnetization 

 Broyden mixing:
  rms(total) = 0.24364E+01    rms(broyden)= 0.24364E+01
  rms(prec ) = 0.25328E+01
  weight for this iteration     100.00

 eigenvalues of (default mixing * dielectric matrix)
  average eigenvalue GAMMA=   2.2947
  2.2947

 Free energy of the ion-electron system (eV)
  ---------------------------------------------------
  alpha Z        PSCENC =       256.70245505
  Ewald energy   TEWEN  =     -9939.26450223
  -Hartree energ DENC   =     -3412.54564804
  -exchange      EXHF   =         0.00000000
  -V(xc)+E(xc)   XCENC  =       797.47746192
  PAW double counting   =     13886.18230187   -14234.79598710
  entropy T*S    EENTRO =        -0.00000000
  eigenvalues    EBANDS =     -3546.96273338
  atomic energy  EATOM  =     15932.49537490
  Solvation  Ediel_sol  =         0.00000000
  ---------------------------------------------------
  free energy    TOTEN  =      -260.71127701 eV

  energy without entropy =     -260.71127701  energy(sigma->0) =     -260.71127701


--------------------------------------------------------------------------------------------------------




--------------------------------------- Iteration      1(  14)  ---------------------------------------


    POTLOK:  cpu time    0.0687: real time    0.0688
    SETDIJ:  cpu time    0.0151: real time    0.0151
    EDDIAG:  cpu time    0.1789: real time    0.1793
  RMM-DIIS:  cpu time    0.8837: real time    0.8919
    ORTHCH:  cpu time    0.0255: real time    0.0255
       DOS:  cpu time    0.0009: real time    0.0009
    CHARGE:  cpu time    0.0414: real time    0.0414
    MIXING:  cpu time    0.0035: real time    0.0035
    --------------------------------------------
      LOOP:  cpu time    1.2176: real time    1.2263

 eigenvalue-minimisations  :   515
 total energy-change (2. order) : 0.9990574E+00  (-0.1784758E+01)
 number of electron     300.0000225 magnetization 
 augmentation part        2.1225052 magnetization 

 Broyden mixing:
  rms(total) = 0.64456E+00    rms(broyden)= 0.64447E+00
  rms(prec ) = 0.68802E+00
  weight for this iteration     100.00

 eigenvalues of (default mixing * dielectric matrix)
  average eigenvalue GAMMA=   1.9383
  1.4458  2.4307

 Free energy of the ion-electron system (eV)
  ---------------------------------------------------
  alpha Z        PSCENC =       256.70245505
  Ewald energy   TEWEN  =     -9939.26450223
  -Hartree energ DENC   =     -3493.47621322
  -exchange      EXHF   =         0.00000000
  -V(xc)+E(xc)   XCENC  =       803.93030080
  PAW double counting   =     21217.67496341   -21574.36885473
  entropy T*S    EENTRO =        -0.00000000
  eigenvalues    EBANDS =     -3463.40574359
  atomic energy  EATOM  =     15932.49537490
  Solvation  Ediel_sol  =         0.00000000
  ---------------------------------------------------
  free energy    TOTEN  =      -259.71221961 eV

  energy without entropy =     -259.71221961  energy(sigma->0) =     -259.71221961


--------------------------------------------------------------------------------------------------------




--------------------------------------- Iteration      1(  15)  ---------------------------------------


    POTLOK:  cpu time    0.0688: real time    0.0687
    SETDIJ:  cpu time    0.0152: real time    0.0152
    EDDIAG:  cpu time    0.1764: real time    0.1771
  RMM-DIIS:  cpu time    0.9992: real time    0.9997
    ORTHCH:  cpu time    0.0264: real time    0.0265
       DOS:  cpu time    0.0008: real time    0.0008
    CHARGE:  cpu time    0.0415: real time    0.0414
    MIXING:  cpu time    0.0034: real time    0.0034
    --------------------------------------------
      LOOP:  cpu time    1.3317: real time    1.3327

 eigenvalue-minimisations  :   583
 total energy-change (2. order) :-0.1104512E+00  (-0.3843419E+00)
 number of electron     300.0000223 magnetization 
 augmentation part        1.7512736 magnetization 

 Broyden mixing:
  rms(total) = 0.16447E+00    rms(broyden)= 0.16401E+00
  rms(prec ) = 0.18342E+00
  weight for this iteration     100.00

 eigenvalues of (default mixing * dielectric matrix)
  average eigenvalue GAMMA=   1.5902
  2.3667  1.0322  1.3717

 Free energy of the ion-electron system (eV)
  ---------------------------------------------------
  alpha Z        PSCENC =       256.70245505
  Ewald energy   TEWEN  =     -9939.26450223
  -Hartree energ DENC   =     -3493.40378944
  -exchange      EXHF   =         0.00000000
  -V(xc)+E(xc)   XCENC  =       804.13115706
  PAW double counting   =     22973.34686475   -23332.21048395
  entropy T*S    EENTRO =        -0.00000000
  eigenvalues    EBANDS =     -3461.61974697
  atomic energy  EATOM  =     15932.49537490
  Solvation  Ediel_sol  =         0.00000000
  ---------------------------------------------------
  free energy    TOTEN  =      -259.82267083 eV

  energy without entropy =     -259.82267083  energy(sigma->0) =     -259.82267083


--------------------------------------------------------------------------------------------------------




--------------------------------------- Iteration      1(  16)  ---------------------------------------


    POTLOK:  cpu time    0.0685: real time    0.0685
    SETDIJ:  cpu time    0.0150: real time    0.0150
    EDDIAG:  cpu time    0.1768: real time    0.1767
  RMM-DIIS:  cpu time    1.0827: real time    1.0832
    ORTHCH:  cpu time    0.0257: real time    0.0257
       DOS:  cpu time    0.0009: real time    0.0009
    CHARGE:  cpu time    0.0416: real time    0.0416
    MIXING:  cpu time    0.0039: real time    0.0039
    --------------------------------------------
      LOOP:  cpu time    1.4152: real time    1.4155

 eigenvalue-minimisations  :   631
 total energy-change (2. order) :-0.1226545E+00  (-0.1483659E+00)
 number of electron     300.0000221 magnetization 
 augmentation part        1.5130355 magnetization 

 Broyden mixing:
  rms(total) = 0.13694E+00    rms(broyden)= 0.13655E+00
  rms(prec ) = 0.14821E+00
  weight for this iteration     100.00

 eigenvalues of (default mixing * dielectric matrix)
  average eigenvalue GAMMA=   1.7338
  2.3004  1.1229  1.7560  1.7560

 Free energy of the ion-electron system (eV)
  ---------------------------------------------------
  alpha Z        PSCENC =       256.70245505
  Ewald energy   TEWEN  =     -9939.26450223
  -Hartree energ DENC   =     -3494.71085936
  -exchange      EXHF   =         0.00000000
  -V(xc)+E(xc)   XCENC  =       804.28744993
  PAW double counting   =     22832.60002643   -23191.72368196
  entropy T*S    EENTRO =        -0.00000000
  eigenvalues    EBANDS =     -3460.33158809
  atomic energy  EATOM  =     15932.49537490
  Solvation  Ediel_sol  =         0.00000000
  ---------------------------------------------------
  free energy    TOTEN  =      -259.94532533 eV

  energy without entropy =     -259.94532533  energy(sigma->0) =     -259.94532533


--------------------------------------------------------------------------------------------------------




--------------------------------------- Iteration      1(  17)  ---------------------------------------


    POTLOK:  cpu time    0.0678: real time    0.0677
    SETDIJ:  cpu time    0.0147: real time    0.0147
    EDDIAG:  cpu time    0.1780: real time    0.1785
  RMM-DIIS:  cpu time    1.1380: real time    1.1371
    ORTHCH:  cpu time    0.0293: real time    0.0294
       DOS:  cpu time    0.0009: real time    0.0009
    CHARGE:  cpu time    0.0496: real time    0.0494
    MIXING:  cpu time    0.0047: real time    0.0047
    --------------------------------------------
      LOOP:  cpu time    1.4829: real time    1.4825

 eigenvalue-minimisations  :   612
 total energy-change (2. order) :-0.8267699E-01  (-0.7866200E-01)
 number of electron     300.0000221 magnetization 
 augmentation part        1.3962465 magnetization 

 Broyden mixing:
  rms(total) = 0.55131E-01    rms(broyden)= 0.54733E-01
  rms(prec ) = 0.61671E-01
  weight for this iteration     100.00

 eigenvalues of (default mixing * dielectric matrix)
  average eigenvalue GAMMA=   1.8054
  2.5271  2.5271  0.9509  1.6923  1.3298

 Free energy of the ion-electron system (eV)
  ---------------------------------------------------
  alpha Z        PSCENC =       256.70245505
  Ewald energy   TEWEN  =     -9939.26450223
  -Hartree energ DENC   =     -3500.22601668
  -exchange      EXHF   =         0.00000000
  -V(xc)+E(xc)   XCENC  =       804.80710478
  PAW double counting   =     22726.44955255   -23085.94099864
  entropy T*S    EENTRO =        -0.00000000
  eigenvalues    EBANDS =     -3455.05097205
  atomic energy  EATOM  =     15932.49537490
  Solvation  Ediel_sol  =         0.00000000
  ---------------------------------------------------
  free energy    TOTEN  =      -260.02800232 eV

  energy without entropy =     -260.02800232  energy(sigma->0) =     -260.02800232


--------------------------------------------------------------------------------------------------------




--------------------------------------- Iteration      1(  18)  ---------------------------------------


    POTLOK:  cpu time    0.0774: real time    0.0774
    SETDIJ:  cpu time    0.0147: real time    0.0147
    EDDIAG:  cpu time    0.1956: real time    0.1955
  RMM-DIIS:  cpu time    1.0816: real time    1.0807
    ORTHCH:  cpu time    0.0271: real time    0.0271
       DOS:  cpu time    0.0009: real time    0.0008
    CHARGE:  cpu time    0.0396: real time    0.0396
    MIXING:  cpu time    0.0040: real time    0.0040
    --------------------------------------------
      LOOP:  cpu time    1.4409: real time    1.4399

 eigenvalue-minimisations  :   608
 total energy-change (2. order) :-0.4642218E-01  (-0.4576901E-01)
 number of electron     300.0000220 magnetization 
 augmentation part        1.3193992 magnetization 

 Broyden mixing:
  rms(total) = 0.13993E-01    rms(broyden)= 0.13179E-01
  rms(prec ) = 0.17107E-01
  weight for this iteration     100.00

 eigenvalues of (default mixing * dielectric matrix)
  average eigenvalue GAMMA=   1.7653
  2.6930  2.6930  1.6069  1.6069  1.0918  0.9003

 Free energy of the ion-electron system (eV)
  ---------------------------------------------------
  alpha Z        PSCENC =       256.70245505
  Ewald energy   TEWEN  =     -9939.26450223
  -Hartree energ DENC   =     -3504.72997952
  -exchange      EXHF   =         0.00000000
  -V(xc)+E(xc)   XCENC  =       805.18196639
  PAW double counting   =     22691.94037142   -23051.26408750
  entropy T*S    EENTRO =        -0.00000000
  eigenvalues    EBANDS =     -3451.13602300
  atomic energy  EATOM  =     15932.49537490
  Solvation  Ediel_sol  =         0.00000000
  ---------------------------------------------------
  free energy    TOTEN  =      -260.07442450 eV

  energy without entropy =     -260.07442450  energy(sigma->0) =     -260.07442450


--------------------------------------------------------------------------------------------------------




--------------------------------------- Iteration      1(  19)  ---------------------------------------


    POTLOK:  cpu time    0.0689: real time    0.0688
    SETDIJ:  cpu time    0.0148: real time    0.0148
    EDDIAG:  cpu time    0.1770: real time    0.1769
  RMM-DIIS:  cpu time    1.1140: real time    1.1132
    ORTHCH:  cpu time    0.0273: real time    0.0273
       DOS:  cpu time    0.0009: real time    0.0009
    CHARGE:  cpu time    0.0401: real time    0.0401
    MIXING:  cpu time    0.0041: real time    0.0041
    --------------------------------------------
      LOOP:  cpu time    1.4471: real time    1.4460

 eigenvalue-minimisations  :   624
 total energy-change (2. order) :-0.3260000E-01  (-0.3341696E-01)
 number of electron     300.0000220 magnetization 
 augmentation part        1.2474238 magnetization 

 Broyden mixing:
  rms(total) = 0.17041E-01    rms(broyden)= 0.16481E-01
  rms(prec ) = 0.17996E-01
  weight for this iteration     100.00

 eigenvalues of (default mixing * dielectric matrix)
  average eigenvalue GAMMA=   1.5722
  2.6317  2.6317  1.5973  1.5973  0.9289  1.1141  0.5043

 Free energy of the ion-electron system (eV)
  ---------------------------------------------------
  alpha Z        PSCENC =       256.70245505
  Ewald energy   TEWEN  =     -9939.26450223
  -Hartree energ DENC   =     -3506.29051150
  -exchange      EXHF   =         0.00000000
  -V(xc)+E(xc)   XCENC  =       805.28577123
  PAW double counting   =     22692.37849600   -23051.28722493
  entropy T*S    EENTRO =        -0.00000000
  eigenvalues    EBANDS =     -3450.12688301
  atomic energy  EATOM  =     15932.49537490
  Solvation  Ediel_sol  =         0.00000000
  ---------------------------------------------------
  free energy    TOTEN  =      -260.10702449 eV

  energy without entropy =     -260.10702449  energy(sigma->0) =     -260.10702449


--------------------------------------------------------------------------------------------------------




--------------------------------------- Iteration      1(  20)  ---------------------------------------


    POTLOK:  cpu time    0.0690: real time    0.0690
    SETDIJ:  cpu time    0.0148: real time    0.0148
    EDDIAG:  cpu time    0.1770: real time    0.1769
  RMM-DIIS:  cpu time    1.1246: real time    1.1238
    ORTHCH:  cpu time    0.0263: real time    0.0263
       DOS:  cpu time    0.0008: real time    0.0008
    CHARGE:  cpu time    0.0400: real time    0.0400
    MIXING:  cpu time    0.0044: real time    0.0044
    --------------------------------------------
      LOOP:  cpu time    1.4569: real time    1.4558

 eigenvalue-minimisations  :   635
 total energy-change (2. order) :-0.1428041E-01  (-0.1470626E-01)
 number of electron     300.0000219 magnetization 
 augmentation part        1.2052982 magnetization 

 Broyden mixing:
  rms(total) = 0.23777E-01    rms(broyden)= 0.23603E-01
  rms(prec ) = 0.25711E-01
  weight for this iteration     100.00

 eigenvalues of (default mixing * dielectric matrix)
  average eigenvalue GAMMA=   1.5221
  2.6787  2.6787  1.6579  1.6579  1.2205  0.9499  0.6959  0.6372

 Free energy of the ion-electron system (eV)
  ---------------------------------------------------
  alpha Z        PSCENC =       256.70245505
  Ewald energy   TEWEN  =     -9939.26450223
  -Hartree energ DENC   =     -3506.42291513
  -exchange      EXHF   =         0.00000000
  -V(xc)+E(xc)   XCENC  =       805.29480350
  PAW double counting   =     22692.91595482   -23051.74205056
  entropy T*S    EENTRO =        -0.00000000
  eigenvalues    EBANDS =     -3450.10042525
  atomic energy  EATOM  =     15932.49537490
  Solvation  Ediel_sol  =         0.00000000
  ---------------------------------------------------
  free energy    TOTEN  =      -260.12130490 eV

  energy without entropy =     -260.12130490  energy(sigma->0) =     -260.12130490


--------------------------------------------------------------------------------------------------------




--------------------------------------- Iteration      1(  21)  ---------------------------------------


    POTLOK:  cpu time    0.0691: real time    0.0691
    SETDIJ:  cpu time    0.0147: real time    0.0147
    EDDIAG:  cpu time    0.1776: real time    0.1775
  RMM-DIIS:  cpu time    1.0731: real time    1.0722
    ORTHCH:  cpu time    0.0262: real time    0.0262
       DOS:  cpu time    0.0008: real time    0.0008
    CHARGE:  cpu time    0.0399: real time    0.0399
    MIXING:  cpu time    0.0046: real time    0.0046
    --------------------------------------------
      LOOP:  cpu time    1.4061: real time    1.4051

 eigenvalue-minimisations  :   614
 total energy-change (2. order) :-0.8037760E-02  (-0.8918784E-02)
 number of electron     300.0000219 magnetization 
 augmentation part        1.1781914 magnetization 

 Broyden mixing:
  rms(total) = 0.36389E-01    rms(broyden)= 0.36333E-01
  rms(prec ) = 0.39789E-01
  weight for this iteration     100.00

 eigenvalues of (default mixing * dielectric matrix)
  average eigenvalue GAMMA=   1.4000
  2.6645  2.6645  1.6568  1.6568  1.2426  0.9518  0.7256  0.5189  0.5189

 Free energy of the ion-electron system (eV)
  ---------------------------------------------------
  alpha Z        PSCENC =       256.70245505
  Ewald energy   TEWEN  =     -9939.26450223
  -Hartree energ DENC   =     -3506.71696886
  -exchange      EXHF   =         0.00000000
  -V(xc)+E(xc)   XCENC  =       805.30673587
  PAW double counting   =     22692.80243425   -23051.64653579
  entropy T*S    EENTRO =        -0.00000000
  eigenvalues    EBANDS =     -3449.80833585
  atomic energy  EATOM  =     15932.49537490
  Solvation  Ediel_sol  =         0.00000000
  ---------------------------------------------------
  free energy    TOTEN  =      -260.12934266 eV

  energy without entropy =     -260.12934266  energy(sigma->0) =     -260.12934266


--------------------------------------------------------------------------------------------------------




--------------------------------------- Iteration      1(  22)  ---------------------------------------


    POTLOK:  cpu time    0.0688: real time    0.0687
    SETDIJ:  cpu time    0.0148: real time    0.0148
    EDDIAG:  cpu time    0.1776: real time    0.1775
  RMM-DIIS:  cpu time    1.0810: real time    1.0801
    ORTHCH:  cpu time    0.0263: real time    0.0263
       DOS:  cpu time    0.0007: real time    0.0007
    CHARGE:  cpu time    0.0403: real time    0.0403
    MIXING:  cpu time    0.0049: real time    0.0049
    --------------------------------------------
      LOOP:  cpu time    1.4142: real time    1.4131

 eigenvalue-minimisations  :   615
 total energy-change (2. order) :-0.4541507E-02  (-0.5784478E-02)
 number of electron     300.0000219 magnetization 
 augmentation part        1.1520375 magnetization 

 Broyden mixing:
  rms(total) = 0.42929E-01    rms(broyden)= 0.42899E-01
  rms(prec ) = 0.46807E-01
  weight for this iteration     100.00

 eigenvalues of (default mixing * dielectric matrix)
  average eigenvalue GAMMA=   1.4150
  3.2970  2.6874  1.7608  1.7608  1.1766  1.1766  0.9241  0.5281  0.5281  0.3107

 Free energy of the ion-electron system (eV)
  ---------------------------------------------------
  alpha Z        PSCENC =       256.70245505
  Ewald energy   TEWEN  =     -9939.26450223
  -Hartree energ DENC   =     -3506.69886536
  -exchange      EXHF   =         0.00000000
  -V(xc)+E(xc)   XCENC  =       805.30500363
  PAW double counting   =     22692.64005666   -23051.50014159
  entropy T*S    EENTRO =        -0.00000000
  eigenvalues    EBANDS =     -3449.81326523
  atomic energy  EATOM  =     15932.49537490
  Solvation  Ediel_sol  =         0.00000000
  ---------------------------------------------------
  free energy    TOTEN  =      -260.13388417 eV

  energy without entropy =     -260.13388417  energy(sigma->0) =     -260.13388417


--------------------------------------------------------------------------------------------------------




--------------------------------------- Iteration      1(  23)  ---------------------------------------


    POTLOK:  cpu time    0.0693: real time    0.0693
    SETDIJ:  cpu time    0.0146: real time    0.0146
    EDDIAG:  cpu time    0.1794: real time    0.1793
  RMM-DIIS:  cpu time    1.0765: real time    1.0755
    ORTHCH:  cpu time    0.0287: real time    0.0287
       DOS:  cpu time    0.0010: real time    0.0010
    CHARGE:  cpu time    0.0496: real time    0.0496
    MIXING:  cpu time    0.0063: real time    0.0063
    --------------------------------------------
      LOOP:  cpu time    1.4253: real time    1.4241

 eigenvalue-minimisations  :   607
 total energy-change (2. order) :-0.2418639E-02  (-0.3027152E-02)
 number of electron     300.0000219 magnetization 
 augmentation part        1.1324800 magnetization 

 Broyden mixing:
  rms(total) = 0.29871E-01    rms(broyden)= 0.29855E-01
  rms(prec ) = 0.32013E-01
  weight for this iteration     100.00

 eigenvalues of (default mixing * dielectric matrix)
  average eigenvalue GAMMA=   1.4209
  3.6240  2.4967  2.1988  1.3842  1.3842  1.2755  0.9750  0.9750  0.4853  0.4853
  0.3457

 Free energy of the ion-electron system (eV)
  ---------------------------------------------------
  alpha Z        PSCENC =       256.70245505
  Ewald energy   TEWEN  =     -9939.26450223
  -Hartree energ DENC   =     -3507.20134109
  -exchange      EXHF   =         0.00000000
  -V(xc)+E(xc)   XCENC  =       805.33870180
  PAW double counting   =     22693.05001433   -23051.35685858
  entropy T*S    EENTRO =        -0.00000000
  eigenvalues    EBANDS =     -3449.90014698
  atomic energy  EATOM  =     15932.49537490
  Solvation  Ediel_sol  =         0.00000000
  ---------------------------------------------------
  free energy    TOTEN  =      -260.13630281 eV

  energy without entropy =     -260.13630281  energy(sigma->0) =     -260.13630281


--------------------------------------------------------------------------------------------------------




--------------------------------------- Iteration      1(  24)  ---------------------------------------


    POTLOK:  cpu time    0.0795: real time    0.0795
    SETDIJ:  cpu time    0.0158: real time    0.0157
    EDDIAG:  cpu time    0.1939: real time    0.1938
  RMM-DIIS:  cpu time    1.1798: real time    1.1787
    ORTHCH:  cpu time    0.0292: real time    0.0292
       DOS:  cpu time    0.0010: real time    0.0010
    CHARGE:  cpu time    0.0494: real time    0.0495
    MIXING:  cpu time    0.0060: real time    0.0060
    --------------------------------------------
      LOOP:  cpu time    1.5547: real time    1.5535

 eigenvalue-minimisations  :   638
 total energy-change (2. order) :-0.1857946E-02  (-0.1985540E-02)
 number of electron     300.0000219 magnetization 
 augmentation part        1.1193427 magnetization 

 Broyden mixing:
  rms(total) = 0.22715E-01    rms(broyden)= 0.22704E-01
  rms(prec ) = 0.24105E-01
  weight for this iteration     100.00

 eigenvalues of (default mixing * dielectric matrix)
  average eigenvalue GAMMA=   1.4855
  4.0169  2.5641  2.1861  1.7797  1.7797  1.1807  1.1807  0.9156  0.9156  0.4647
  0.4647  0.3779

 Free energy of the ion-electron system (eV)
  ---------------------------------------------------
  alpha Z        PSCENC =       256.70245505
  Ewald energy   TEWEN  =     -9939.26450223
  -Hartree energ DENC   =     -3507.48411637
  -exchange      EXHF   =         0.00000000
  -V(xc)+E(xc)   XCENC  =       805.36197149
  PAW double counting   =     22703.41536281   -23061.40765574
  entropy T*S    EENTRO =        -0.00000000
  eigenvalues    EBANDS =     -3449.95705066
  atomic energy  EATOM  =     15932.49537490
  Solvation  Ediel_sol  =         0.00000000
  ---------------------------------------------------
  free energy    TOTEN  =      -260.13816075 eV

  energy without entropy =     -260.13816075  energy(sigma->0) =     -260.13816075


--------------------------------------------------------------------------------------------------------




--------------------------------------- Iteration      1(  25)  ---------------------------------------


[...]
      direct lattice vectors                 reciprocal lattice vectors
    10.250000000  0.000000000  0.000000000     0.097560976  0.000000000  0.000000000
     0.000000000 10.250000000  0.000000000     0.000000000  0.097560976  0.000000000
     0.000000000  0.000000000 12.350000000     0.000000000  0.000000000  0.080971660

  length of vectors
    10.250000000 10.250000000 12.350000000     0.097560976  0.097560976  0.080971660


 FORCES acting on ions
    electron-ion (+dipol)            ewald-force                    non-local-force                 convergence-correction
 -----------------------------------------------------------------------------------------------
   0.260E+01 0.518E+01 0.105E+02   -.113E+01 -.493E+01 -.983E+01   -.180E+01 0.192E+00 -.893E+00   -.326E-02 0.465E-03 -.364E-03
   -.505E+00 -.235E+02 0.413E+02   0.125E+01 0.237E+02 -.407E+02   -.627E+00 -.340E+00 -.553E+00   0.768E-03 -.126E-03 -.218E-03
   -.400E+01 0.342E+02 0.678E+01   0.299E+01 -.342E+02 -.647E+01   0.116E+01 -.179E+00 -.205E+00   -.221E-03 -.776E-04 0.952E-03
   -.267E+01 -.390E+02 -.587E+01   0.179E+01 0.378E+02 0.605E+01   0.808E+00 0.124E+01 -.227E+00   0.162E-02 -.188E-02 -.714E-04
   0.216E+02 0.275E+02 -.159E+02   -.212E+02 -.266E+02 0.162E+02   -.444E+00 -.903E+00 -.322E+00   0.936E-03 -.520E-03 -.276E-02
   -.282E+02 -.222E+02 0.230E+02   0.266E+02 0.218E+02 -.229E+02   0.156E+01 0.409E+00 -.128E+00   0.256E-03 -.105E-02 -.935E-03
   0.178E+02 -.417E+01 -.348E+02   -.169E+02 0.470E+01 0.328E+02   -.787E+00 -.638E+00 0.202E+01   0.374E-05 -.770E-03 0.155E-02
   0.111E+02 0.156E+02 -.272E+02   -.109E+02 -.149E+02 0.282E+02   0.245E-01 -.940E+00 -.983E+00   -.101E-02 0.523E-03 -.221E-02
   0.160E+02 -.249E+01 0.375E+02   -.164E+02 0.182E+01 -.374E+02   0.377E+00 0.760E+00 -.820E-01   0.114E-02 -.997E-04 0.164E-02
   -.785E+01 -.117E+01 -.176E+02   0.710E+01 0.118E+01 0.169E+02   0.811E+00 -.312E-01 0.636E+00   -.168E-03 0.160E-02 0.188E-02
   -.107E+02 0.190E+02 0.994E+01   0.103E+02 -.176E+02 -.992E+01   0.390E+00 -.150E+01 0.756E-01   -.207E-02 -.120E-02 0.124E-02
   -.800E+01 -.180E+02 0.590E-01   0.733E+01 0.170E+02 -.381E+00   0.557E+00 0.883E+00 0.260E+00   0.133E-02 0.153E-02 0.126E-02
   -.272E+02 -.453E+01 0.249E+02   0.263E+02 0.424E+01 -.251E+02   0.133E+01 0.336E+00 0.116E+00   -.513E-04 0.270E-03 -.243E-02
   0.269E+01 0.883E+01 -.388E+01   -.336E+01 -.797E+01 0.415E+01   0.834E+00 -.826E+00 -.536E+00   -.954E-03 0.629E-03 0.160E-03
   0.163E+02 -.165E+02 -.556E+01   -.152E+02 0.157E+02 0.532E+01   -.948E+00 0.617E+00 0.310E+00   -.201E-02 -.657E-03 0.916E-03
   -.807E+01 0.135E+02 0.587E+01   0.770E+01 -.138E+02 -.469E+01   0.645E+00 0.586E+00 -.135E+01   -.133E-02 -.106E-02 -.163E-02
   0.248E+02 0.206E+02 0.239E+01   -.235E+02 -.195E+02 -.191E+01   -.112E+01 -.129E+01 -.620E+00   -.230E-02 0.322E-03 -.622E-03
   -.192E+02 0.758E+01 0.170E+02   0.184E+02 -.814E+01 -.167E+02   0.111E+01 0.561E+00 -.289E+00   -.271E-03 0.231E-02 -.222E-02
   0.247E+02 0.231E+02 0.164E+01   -.235E+02 -.220E+02 -.121E+01   -.143E+01 -.895E+00 -.498E+00   -.410E-03 -.267E-03 0.215E-02
   -.850E+01 -.209E+02 -.596E+01   0.807E+01 0.206E+02 0.560E+01   0.533E+00 0.398E+00 0.353E+00   0.619E-03 0.199E-03 -.566E-03
   0.938E+01 0.374E+01 -.392E+01   -.839E+01 -.299E+01 0.288E+01   -.935E+00 -.832E+00 0.106E+01   -.764E-03 -.320E-03 0.152E-02
   0.119E+02 -.481E+01 -.374E+01   -.124E+02 0.514E+01 0.308E+01   0.306E+00 -.398E+00 0.629E+00   0.613E-04 0.517E-03 -.102E-02
   -.945E+01 0.191E+02 -.184E+01   0.934E+01 -.188E+02 0.276E+01   -.472E-01 -.350E+00 -.813E+00   -.210E-03 -.104E-03 -.205E-03
   -.878E+01 0.395E+02 -.259E+02   0.784E+01 -.392E+02 0.251E+02   0.107E+01 -.502E+00 0.907E+00   0.159E-02 0.596E-03 0.152E-02
   -.107E+02 0.337E+02 -.101E+02   0.102E+02 -.334E+02 0.104E+02   0.551E+00 -.319E+00 -.389E+00   0.173E-02 0.676E-03 -.145E-02
   0.883E+01 -.101E+02 0.119E+01   -.781E+01 0.104E+02 -.125E+01   -.106E+01 -.331E+00 0.268E-01   0.370E-04 0.118E-02 0.223E-03
   -.209E+02 0.141E+01 -.504E+02   0.208E+02 -.143E+01 0.484E+02   0.172E+00 0.223E+00 0.207E+01   -.141E-02 -.389E-03 -.192E-03
   -.130E+02 0.318E+02 0.269E+02   0.128E+02 -.317E+02 -.257E+02   -.501E-01 -.363E+00 -.127E+01   -.540E-04 -.358E-04 -.679E-03
   0.558E+01 0.161E+02 0.138E+02   -.654E+01 -.165E+02 -.130E+02   0.968E+00 0.303E+00 -.555E+00   0.179E-02 0.907E-03 0.943E-03
   -.222E+02 -.169E+02 -.234E+02   0.212E+02 0.175E+02 0.222E+02   0.945E+00 -.502E+00 0.132E+01   0.172E-02 -.102E-02 -.164E-03
   0.347E+01 -.353E+02 0.431E+02   -.983E+01 0.396E+02 -.519E+02   0.615E+01 -.393E+01 0.875E+01   -.962E-03 0.234E-02 -.405E-02
   -.512E+02 0.498E+02 0.874E+01   0.555E+02 -.617E+02 -.932E+01   -.448E+01 0.114E+02 0.339E+00   -.126E-03 -.760E-03 0.105E-02
   0.210E+02 -.509E+02 -.306E+01   -.271E+02 0.589E+02 0.115E+01   0.594E+01 -.832E+01 0.151E+01   0.871E-03 0.208E-02 0.307E-02
   -.234E+02 -.176E+02 -.262E+02   0.263E+02 0.119E+02 0.331E+02   -.298E+01 0.468E+01 -.672E+01   0.128E-02 -.248E-02 0.175E-02
   0.126E+02 0.901E+01 -.136E+02   -.108E+02 -.200E+02 0.166E+02   -.138E+01 0.109E+02 -.287E+01   0.232E-02 -.636E-02 0.171E-02
   0.858E+02 -.404E+02 0.276E+02   -.951E+02 0.419E+02 -.272E+02   0.968E+01 -.162E+01 -.297E+00   -.398E-02 -.496E-02 -.584E-03
   0.715E+02 0.257E+02 -.719E+02   -.722E+02 -.285E+02 0.762E+02   0.777E+00 0.283E+01 -.455E+01   0.176E-02 0.839E-05 0.123E-03
   0.253E+02 0.538E+02 -.254E+02   -.272E+02 -.579E+02 0.342E+02   0.206E+01 0.413E+01 -.913E+01   -.205E-02 -.251E-02 0.179E-02
   -.127E+00 -.898E+02 0.587E+02   -.238E+00 0.938E+02 -.600E+02   0.409E+00 -.322E+01 0.114E+01   0.271E-02 0.378E-02 0.489E-02
   0.836E+02 -.695E+02 0.176E+02   -.860E+02 0.713E+02 -.166E+02   0.257E+01 -.171E+01 -.102E+01   0.144E-02 -.128E-02 0.730E-02
   -.852E+02 -.455E+01 0.601E+02   0.926E+02 0.728E+01 -.619E+02   -.716E+01 -.253E+01 0.170E+01   0.525E-02 0.206E-02 -.526E-03
   -.802E+02 -.210E+02 -.303E+02   0.834E+02 0.206E+02 0.308E+02   -.318E+01 0.290E+00 -.424E+00   0.158E-02 -.525E-03 -.592E-02
   -.259E+02 -.278E+02 -.413E+02   0.274E+02 0.304E+02 0.421E+02   -.124E+01 -.230E+01 -.549E+00   0.161E-02 0.376E-02 -.182E-02
   -.747E+02 -.571E+02 -.500E+02   0.804E+02 0.636E+02 0.524E+02   -.567E+01 -.656E+01 -.237E+01   0.793E-03 -.122E-02 0.168E-02
   0.119E+02 -.178E+02 0.611E+02   -.122E+02 0.197E+02 -.644E+02   0.106E+00 -.198E+01 0.371E+01   -.971E-03 0.366E-02 -.303E-02
   0.298E+02 -.397E+01 -.202E+01   -.296E+02 0.359E+01 0.169E+01   -.436E+00 0.895E+00 0.471E+00   0.278E-03 0.886E-03 0.575E-02
   0.377E+01 -.842E+02 -.284E+02   -.496E+01 0.907E+02 0.315E+02   0.112E+01 -.562E+01 -.259E+01   -.256E-02 0.640E-02 -.149E-02
   -.196E+02 0.903E+02 0.418E+02   0.197E+02 -.936E+02 -.430E+02   -.186E+00 0.379E+01 0.123E+01   0.216E-02 -.893E-03 0.246E-02
   0.314E+02 -.758E+02 0.347E+02   -.322E+02 0.775E+02 -.379E+02   0.688E+00 -.165E+01 0.289E+01   0.137E-02 -.611E-02 -.588E-02
   0.323E+02 0.142E+03 -.884E+02   -.345E+02 -.148E+03 0.908E+02   0.228E+01 0.533E+01 -.232E+01   0.601E-02 0.211E-02 0.529E-03
   -.347E+02 0.432E+02 -.165E+02   0.349E+02 -.432E+02 0.164E+02   -.391E+00 -.910E-01 0.160E+00   -.224E-02 0.547E-03 -.210E-02
   0.473E+02 0.590E+02 0.329E+02   -.543E+02 -.626E+02 -.329E+02   0.679E+01 0.344E+01 0.248E+00   -.257E-02 -.220E-02 0.559E-03
   0.400E+02 0.250E+02 -.263E+02   -.403E+02 -.250E+02 0.267E+02   0.288E+00 -.163E+00 -.423E+00   -.997E-03 -.334E-02 -.778E-02
   -.249E+02 -.150E+02 -.881E+01   0.248E+02 0.155E+02 0.885E+01   0.466E+00 -.676E+00 0.499E-01   -.216E-02 -.145E-02 0.432E-02
   0.144E+01 0.334E+02 0.317E+02   -.593E+00 -.397E+02 -.362E+02   -.999E+00 0.566E+01 0.413E+01   0.201E-02 -.191E-02 -.621E-02
   -.357E+01 -.990E+02 -.264E+02   0.415E+01 0.105E+03 0.277E+02   -.479E+00 -.488E+01 -.117E+01   -.294E-02 -.176E-02 0.663E-02
   -.513E+01 -.590E+02 0.118E+02   0.967E+01 0.631E+02 -.123E+02   -.471E+01 -.415E+01 0.186E+00   0.225E-02 -.246E-02 -.124E-02
   -.466E+02 0.273E+02 0.109E+03   0.501E+02 -.291E+02 -.113E+03   -.372E+01 0.210E+01 0.423E+01   -.176E-02 0.324E-04 0.217E-02
   0.521E+02 0.396E+02 0.460E+02   -.534E+02 -.428E+02 -.567E+02   0.118E+01 0.257E+01 0.108E+02   -.167E-02 0.727E-03 0.229E-03
   0.223E+02 0.846E+02 -.217E+02   -.222E+02 -.880E+02 0.237E+02   -.788E-01 0.313E+01 -.194E+01   0.504E-03 -.244E-02 0.951E-05
   0.189E+02 -.288E+02 0.202E+02   -.189E+02 0.289E+02 -.202E+02   -.208E+00 0.221E-01 0.916E-02   0.104E-02 0.150E-02 0.748E-03
   0.103E+02 -.137E+02 -.290E+02   -.108E+02 0.141E+02 0.295E+02   0.498E+00 -.285E+00 -.505E+00   0.253E-02 -.852E-03 -.414E-02
   0.189E+02 -.174E+02 -.326E+02   -.192E+02 0.180E+02 0.334E+02   0.226E+00 -.597E+00 -.757E+00   0.317E-02 -.358E-02 -.561E-02
   -.104E+03 0.664E+02 -.258E+02   0.105E+03 -.668E+02 0.257E+02   -.164E+01 0.291E+00 0.340E-01   -.849E-02 0.392E-02 0.197E-03
   -.150E+02 -.636E+02 -.282E+02   0.154E+02 0.637E+02 0.281E+02   -.351E+00 -.156E+00 0.148E+00   0.627E-03 -.218E-02 0.145E-02
 -----------------------------------------------------------------------------------------------
   -.686E+01 -.632E+01 -.414E+01   -.160E-12 -.497E-13 0.355E-13   0.686E+01 0.633E+01 0.414E+01   0.519E-02 -.133E-01 -.377E-02
 
 
 POSITION                                       TOTAL-FORCE (eV/Angst)
 -----------------------------------------------------------------------------------
      6.32718      9.21750     12.33240        -0.341171      0.439509     -0.260922
      7.55371      5.80859      7.56176         0.114497     -0.075340      0.051100
      2.43613      1.79395      0.40790         0.155821     -0.106684      0.105283
      1.51402      7.58546      2.55585        -0.062714      0.097116     -0.049654
      3.07860      2.18802      3.96892        -0.114153      0.071946     -0.012799
      2.00838      0.47361      8.17639        -0.059348      0.012929     -0.039959
      7.52393      5.70560      2.65965         0.070575     -0.107499      0.027717
      5.26690      0.67496      3.71759         0.210343     -0.220126     -0.025208
     10.05630      9.60347      7.12854        -0.050639      0.084395     -0.020957
      9.68280      4.18207      2.77955         0.061742     -0.025697     -0.052437
      4.38858      9.87820      6.51579        -0.025300     -0.075187      0.097788
      9.09857      5.98297      0.06880        -0.104690     -0.147576     -0.060402
      0.24406      3.75455      9.04930         0.426497      0.048911     -0.049301
      3.04460      5.36527      7.37206         0.163165      0.031708     -0.270438
      6.43961      2.29929     12.17760         0.187062     -0.173460      0.064109
      8.83181      1.90198     10.17110         0.273253      0.311813     -0.175802
      6.43348      5.49882     12.18340         0.170007     -0.162460     -0.142150
      4.86513      4.13125      5.33418         0.221773      0.001024      0.047315
      4.81063      6.82196      1.77210        -0.240645      0.130746     -0.065374
      2.13360      7.74123     10.71450         0.098472      0.102548     -0.010486
      7.20472      2.42745      2.69393         0.051092     -0.084490      0.019063
      9.89281      7.15467      9.05013        -0.120152     -0.065283     -0.033805
      0.12542      3.81858      5.67762        -0.154255     -0.021286      0.112227
      9.33705      2.06087      0.52159         0.126408     -0.153113      0.035755
      7.39809      1.41472      5.52358         0.034631      0.026458     -0.134391
      5.54549      6.47448      9.56021        -0.037924      0.005505     -0.032978
      6.41481      8.37182      3.11207         0.037025      0.203861      0.144800
      7.14740      0.23199      9.54582        -0.282646     -0.284317     -0.085497
      6.17445      2.83953      7.64940         0.015346     -0.033932      0.231901
      8.93926      8.90765      0.53640        -0.054411      0.032884      0.093602
      2.94190      6.23430      4.16685        -0.214051      0.321739     -0.107847
      2.91830      4.75917     10.91780        -0.180714     -0.570715     -0.245997
      0.97395      4.43081     12.06400        -0.132124     -0.291938     -0.398134
      2.02913      7.28414      6.03047        -0.025561     -0.996647      0.166130
     10.16700      6.36189      5.60461         0.464787     -0.092626      0.127665
      3.78968      1.06525      9.96337         0.380133     -0.160165      0.116068
      3.94470      9.08532      2.68914         0.102939      0.059486     -0.260232
      4.44071      9.32880     10.22240         0.135655      0.001408     -0.413708
      2.02954      9.31338      5.90161         0.045967      0.801832     -0.177547
      8.88080      7.55293      6.75066         0.114712      0.145948      0.042156
      0.26877      2.02345      7.32072         0.264457      0.193129     -0.031865
      5.06746      6.31832      4.16037         0.018328     -0.088322      0.144701
      4.07932      6.30787     11.71350         0.190081      0.368852      0.190575
      1.79500      4.00367      1.69376        -0.034311     -0.027026      0.027684
      1.85407      5.68880      9.27695        -0.235025     -0.072406      0.446479
      7.95374      3.87365      1.01516        -0.207173      0.517276      0.145860
      7.89145      5.87736     10.10540        -0.070903      0.868326      0.493913
      0.80760      2.50425     11.16620        -0.040198      0.515304      0.119293
      9.72683      6.70217      3.58510        -0.143404      0.002518     -0.317948
      0.95759      2.19215      2.34234         0.098065      0.059251      0.116559
      8.03185      0.44917     11.74560        -0.199417     -0.145957      0.050786
      8.56384      1.27158      7.59564        -0.225518     -0.166855      0.259305
      4.98203      1.77147      5.72105        -0.049772     -0.115554      0.003274
      7.04412      7.40509      1.07983         0.280752     -0.227368      0.095885
      8.22169      4.09724      9.11658        -0.151480     -0.705434     -0.352825
      4.72614      1.93155      1.72646         0.102685      0.585772      0.112257
      5.49820      2.23786      9.91410        -0.160531     -0.012879     -0.331937
      5.56274      8.75437      8.51702        -0.214121      0.299207      0.369275
      4.21521      0.07628      0.99743        -0.153657     -0.640010      0.090875
      2.50471      4.38202      5.08956         0.009611     -0.263270      0.057249
      5.35995      5.11090      7.53102        -0.249342      0.058754     -0.014467
      8.13246      3.55642      4.64034         0.054921      0.106566     -0.025911
      0.75365      9.22762      9.40305        -0.115552     -0.037466      0.062547
      7.62638      0.19085      3.52980        -0.241055     -0.112724     -0.066666
      0.69697      7.78962      0.35343         0.011154     -0.042909     -0.001550
 -----------------------------------------------------------------------------------
    total drift:                               -0.003751     -0.002111     -0.001425


--------------------------------------------------------------------------------------------------------



  FREE ENERGIE OF THE ION-ELECTRON SYSTEM (eV)
  ---------------------------------------------------
  free  energy   TOTEN  =      -260.14153815 eV

  energy  without entropy=     -260.14153815  energy(sigma->0) =     -260.14153815
 


--------------------------------------------------------------------------------------------------------


    POTLOK:  cpu time    0.0965: real time    0.0989


--------------------------------------------------------------------------------------------------------




--------------------------------------------------------------------------------------------------------


     LOOP+:  cpu time   57.0627: real time   57.1710
    4ORBIT:  cpu time    0.0000: real time    0.0000
 


 total charge     
 
# of ion       s       p       d       tot
------------------------------------------
    1        2.024   0.059   0.000   2.083
    2        2.018   0.054   0.000   2.072
    3        2.012   0.046   0.000   2.058
    4        2.013   0.042   0.000   2.055
    5        2.009   0.035   0.000   2.044
    6        2.014   0.045   0.000   2.059
    7        2.015   0.048   0.000   2.062
    8        2.025   0.063   0.000   2.089
    9        2.016   0.047   0.000   2.063
   10        2.014   0.047   0.000   2.061
   11        2.016   0.044   0.000   2.060
   12        2.011   0.041   0.000   2.053
   13        2.023   0.059   0.000   2.082
   14        2.022   0.056   0.000   2.078
   15        2.017   0.050   0.000   2.067
   16        2.021   0.056   0.000   2.077
   17        2.018   0.053   0.000   2.072
   18        2.018   0.052   0.000   2.070
   19        2.017   0.052   0.000   2.069
   20        2.010   0.039   0.000   2.050
   21        2.017   0.049   0.000   2.066
   22        2.012   0.041   0.000   2.053
   23        2.015   0.047   0.000   2.062
   24        2.022   0.059   0.000   2.082
   25        2.020   0.054   0.000   2.074
   26        2.014   0.045   0.000   2.059
   27        2.016   0.048   0.000   2.064
   28        2.017   0.048   0.000   2.065
   29        2.013   0.044   0.000   2.058
   30        2.019   0.050   0.000   2.070
   31        1.069   1.333   0.000   2.403
   32        1.105   1.303   0.000   2.408
   33        1.092   1.326   0.000   2.419
   34        1.066   1.387   0.000   2.453
   35        1.062   1.352   0.000   2.414
   36        1.361   2.265   0.000   3.626
   37        1.352   2.341   0.000   3.693
   38        1.367   2.256   0.000   3.622
   39        1.334   2.419   0.000   3.753
   40        1.334   2.431   0.000   3.765
   41        1.329   2.380   0.000   3.710
   42        1.333   2.406   0.000   3.740
   43        1.332   2.425   0.000   3.757
   44        1.360   2.309   0.000   3.669
   45        1.332   2.426   0.000   3.759
   46        1.307   2.477   0.000   3.784
   47        1.327   2.396   0.000   3.723
   48        1.339   2.414   0.000   3.753
   49        1.334   2.409   0.000   3.743
   50        1.347   2.348   0.000   3.695
   51        1.304   2.506   0.000   3.810
   52        1.328   2.382   0.000   3.711
   53        1.307   2.470   0.000   3.777
   54        1.306   2.510   0.000   3.816
   55        1.338   2.388   0.000   3.726
   56        1.341   2.387   0.000   3.728
   57        1.350   2.354   0.000   3.704
   58        1.346   2.342   0.000   3.688
   59        1.355   2.284   0.000   3.639
   60        1.331   2.432   0.000   3.764
   61        1.589   3.608   0.000   5.196
   62        1.591   3.572   0.000   5.163
   63        1.589   3.588   0.000   5.177
   64        1.590   3.576   0.000   5.166
   65        1.589   3.583   0.000   5.172
--------------------------------------------------
tot        107.240  85.859   0.000 193.099
 

 total amount of memory used by VASP MPI-rank0    42204. kBytes
=======================================================================

   base      :      30000. kBytes
   nonl-proj :       5360. kBytes
   fftplans  :       1886. kBytes
   grid      :       3386. kBytes
   one-center:         27. kBytes
   wavefun   :       1545. kBytes
 
  
  
 General timing and accounting informations for this job:
 ========================================================
  
                  Total CPU time used (sec):       65.441
                            User time (sec):       61.231
                          System time (sec):        4.210
                         Elapsed time (sec):       66.627
  
                   Maximum memory used (kb):      158392.
                   Average memory used (kb):           0.
  
                          Minor page faults:        58394
                          Major page faults:            0
                 Voluntary context switches:         3580
