<?xml version="1.0" encoding="ISO-8859-1"?>
<modeling>
 <generator>
  <i name="program" type="string">vasp </i>
  <i name="version" type="string">5.4.4.18Apr17-6-g9f103f2a35  </i>
  <i name="subversion" type="string">(build Jan 22 2020 12:49:05) complex            parallel </i>
  <i name="platform" type="string">Bebop BDW IPS19.0.5 gcc9.2.0 </i>
  <i name="date" type="string">2022 09 29 </i>
  <i name="time" type="string">09:57:20 </i>
 </generator>
 <incar>
  <i type="string" name="SYSTEM"> LPSC</i>
  <i type="string" name="PREC">normal</i>
  <i type="int" name="IALGO">    48</i>
  <i type="int" name="ISPIN">     1</i>
  <i type="int" name="NELM">   100</i>
  <i type="int" name="IBRION">     2</i>
  <i name="EDIFF">      0.00000100</i>
  <i name="EDIFFG">     -0.01000000</i>
  <i type="int" name="NSW">     1</i>
  <i type="int" name="ISIF">     2</i>
  <i type="int" name="ISYM">     0</i>
  <i name="ENCUT">    500.00000000</i>
  <i type="int" name="ISMEAR">     0</i>
  <i name="SIGMA">      0.05000000</i>
  <i type="logical" name="LWAVE"> F  </i>
  <i type="logical" name="LCHARG"> F  </i>
  <i type="int" name="LORBIT">    11</i>
  <v type="int" name="KPOINT_BSE">    -1     0     0     0</v>
  <i type="int" name="NELM">   100</i>
 </incar>
 <structure name="primitive_cell" >
  <crystal>
   <varray name="basis" >
    <v>      10.25000000       0.00000000       0.00000000 </v>
    <v>       0.00000000      10.25000000       0.00000000 </v>
    <v>       0.00000000       0.00000000      12.35000000 </v>
   </varray>
   <i name="volume">   1297.52187500 </i>
   <varray name="rec_basis" >
    <v>       0.09756098       0.00000000       0.00000000 </v>
    <v>       0.00000000       0.09756098       0.00000000 </v>
    <v>       0.00000000       0.00000000       0.08097166 </v>
   </varray>
  </crystal>
  <varray name="positions" >
   <v>      -0.38271415      -0.10073171      -0.00142510 </v>
   <v>      -0.31276878      -0.27755220       0.08743563 </v>
   <v>      -0.21640488       0.04382146      -0.04893927 </v>
   <v>       0.41124000       0.00744147       0.08076348 </v>
   <v>      -0.12787707      -0.13096098       0.04343320 </v>
   <v>       0.43324000      -0.08987317      -0.17227530 </v>
   <v>      -0.30269268       0.02263327      -0.22705911 </v>
   <v>      -0.37416488      -0.18323707       0.25198947 </v>
   <v>      -0.37174537       0.22432098      -0.01395951 </v>
   <v>       0.46932976      -0.33444293       0.14348988 </v>
   <v>       0.38484878      -0.11362732       0.21774413 </v>
   <v>      -0.37234341      -0.46352976      -0.01348988 </v>
   <v>       0.39798244      -0.38459805      -0.05153846 </v>
   <v>       0.46108683       0.18844390       0.13979433 </v>
   <v>      -0.45729366      -0.14591512      -0.31036275 </v>
   <v>      -0.25596293       0.01861902       0.28581377 </v>
   <v>      -0.45897659      -0.36834341      -0.22589393 </v>
   <v>       0.36972488       0.10392683      -0.19324939 </v>
   <v>      -0.46359024       0.21832780      -0.19723887 </v>
   <v>      -0.48615610       0.06584956       0.30101943 </v>
   <v>      -0.11233463      -0.41629561       0.00557081 </v>
   <v>      -0.23010244      -0.42659902      -0.18174899 </v>
   <v>      -0.08906829       0.20106049       0.04223368 </v>
   <v>      -0.13836000       0.18555902      -0.17642915 </v>
   <v>      -0.29710049       0.23682439       0.21813198 </v>
   <v>      -0.26595805      -0.44335610       0.21535628 </v>
   <v>       0.20815610      -0.24475805      -0.13242915 </v>
   <v>       0.23767122       0.17501951       0.03302834 </v>
   <v>       0.06799717      -0.24003707       0.02861798 </v>
   <v>       0.49438634      -0.38357854       0.33687206 </v>
   <v>      -0.03484780      -0.30198341      -0.26719595 </v>
   <v>      -0.22402537       0.37791707       0.08219919 </v>
   <v>       0.07352644      -0.09974439      -0.23861943 </v>
   <v>      -0.05104098      -0.34612976       0.29029150 </v>
   <v>       0.14770927      -0.25995512       0.20695142 </v>
   <v>      -0.16450341       0.12405659      -0.38496842 </v>
   <v>       0.28471220       0.46430927      -0.11596761 </v>
   <v>      -0.26305268      -0.43330829      -0.38771174 </v>
   <v>       0.07878985       0.24431707      -0.09585425 </v>
   <v>       0.30035122       0.21346537       0.32137004 </v>
   <v>      -0.39761463       0.27702732      -0.38061538 </v>
   <v>      -0.27823512       0.13802146       0.44725344 </v>
   <v>       0.28701463      -0.39177561       0.33739676 </v>
   <v>       0.42815415      -0.03627317      -0.47240567 </v>
   <v>       0.19593951       0.04620595      -0.33794413 </v>
   <v>       0.09342332       0.21386829       0.18966316 </v>
   <v>      -0.19788390       0.39973073      -0.26181538 </v>
   <v>      -0.13358049      -0.26312878      -0.45338785 </v>
   <v>      -0.47707805       0.49862439      -0.39020081 </v>
   <v>      -0.01889756      -0.06307610      -0.42279028 </v>
   <v>       0.18088488      -0.44499512      -0.24882996 </v>
   <v>       0.48605171       0.17282634       0.46324291 </v>
   <v>      -0.05533659       0.40800683       0.22506478 </v>
   <v>      -0.20658927       0.34696780       0.37573603 </v>
   <v>       0.09501951       0.43227415      -0.02315789 </v>
   <v>       0.17512195       0.39060195       0.13714656 </v>
   <v>       0.29703415      -0.47655902      -0.40307206 </v>
   <v>       0.02381112       0.36629756      -0.26726316 </v>
   <v>       0.02622137       0.19740976      -0.40722915 </v>
   <v>       0.19800390      -0.09137756       0.47786316 </v>
   <v>      -0.00809756      -0.37932780       0.45381457 </v>
   <v>       0.47464683       0.40304878       0.43191741 </v>
   <v>       0.19796390      -0.28935220       0.48829717 </v>
   <v>       0.24436195       0.42751415       0.41211012 </v>
   <v>       0.01223571       0.37254439       0.45972632 </v>
  </varray>
 </structure>
 <varray name="primitive_index" >
  <v type="int" >        1 </v>
  <v type="int" >       54 </v>
  <v type="int" >       51 </v>
  <v type="int" >       59 </v>
  <v type="int" >       30 </v>
  <v type="int" >       38 </v>
  <v type="int" >       28 </v>
  <v type="int" >       27 </v>
  <v type="int" >       15 </v>
  <v type="int" >       19 </v>
  <v type="int" >       37 </v>
  <v type="int" >       17 </v>
  <v type="int" >       43 </v>
  <v type="int" >       56 </v>
  <v type="int" >       58 </v>
  <v type="int" >       64 </v>
  <v type="int" >       26 </v>
  <v type="int" >       36 </v>
  <v type="int" >       57 </v>
  <v type="int" >        8 </v>
  <v type="int" >       12 </v>
  <v type="int" >       47 </v>
  <v type="int" >       24 </v>
  <v type="int" >       16 </v>
  <v type="int" >       21 </v>
  <v type="int" >        7 </v>
  <v type="int" >       20 </v>
  <v type="int" >        3 </v>
  <v type="int" >       65 </v>
  <v type="int" >       42 </v>
  <v type="int" >       22 </v>
  <v type="int" >       46 </v>
  <v type="int" >       63 </v>
  <v type="int" >       49 </v>
  <v type="int" >        4 </v>
  <v type="int" >       52 </v>
  <v type="int" >       32 </v>
  <v type="int" >        2 </v>
  <v type="int" >       48 </v>
  <v type="int" >        5 </v>
  <v type="int" >       29 </v>
  <v type="int" >       25 </v>
  <v type="int" >       31 </v>
  <v type="int" >       11 </v>
  <v type="int" >        6 </v>
  <v type="int" >       50 </v>
  <v type="int" >       55 </v>
  <v type="int" >       40 </v>
  <v type="int" >       61 </v>
  <v type="int" >        9 </v>
  <v type="int" >       45 </v>
  <v type="int" >       53 </v>
  <v type="int" >       10 </v>
  <v type="int" >       62 </v>
  <v type="int" >       33 </v>
  <v type="int" >       44 </v>
  <v type="int" >       14 </v>
  <v type="int" >       13 </v>
  <v type="int" >       41 </v>
  <v type="int" >       39 </v>
  <v type="int" >       35 </v>
  <v type="int" >       18 </v>
  <v type="int" >       34 </v>
  <v type="int" >       60 </v>
  <v type="int" >       23 </v>
 </varray>
 <kpoints>
  <generation param="Gamma">
   <v type="int" name="divisions">       1        1        1 </v>
   <v name="usershift">      0.00000000       0.00000000       0.00000000 </v>
   <v name="genvec1">      1.00000000       0.00000000       0.00000000 </v>
   <v name="genvec2">      0.00000000       1.00000000       0.00000000 </v>
   <v name="genvec3">      0.00000000       0.00000000       1.00000000 </v>
   <v name="shift">      0.00000000       0.00000000       0.00000000 </v>
  </generation>
  <varray name="kpointlist" >
   <v>       0.00000000       0.00000000       0.00000000 </v>
  </varray>
  <varray name="weights" >
   <v>       1.00000000 </v>
  </varray>
 </kpoints>
 <parameters>
  <separator name="general" >
   <i type="string" name="SYSTEM">LPSC</i>
   <i type="logical" name="LCOMPAT"> F  </i>
  </separator>
  <separator name="electronic" >
   <i type="string" name="PREC">normal</i>
   <i name="ENMAX">    500.00000000</i>
   <i name="ENAUG">    628.94500000</i>
   <i name="EDIFF">      0.00000100</i>
   <i type="int" name="IALGO">    48</i>
   <i type="int" name="IWAVPR">    11</i>
   <i type="int" name="NBANDS">   184</i>
   <i name="NELECT">    300.00000000</i>
   <i type="int" name="TURBO">     0</i>
   <i type="int" name="IRESTART">     0</i>
   <i type="int" name="NREBOOT">     0</i>
   <i type="int" name="NMIN">     0</i>
   <i name="EREF">      0.00000000</i>
   <separator name="electronic smearing" >
    <i type="int" name="ISMEAR">     0</i>
    <i name="SIGMA">      0.05000000</i>
    <i name="KSPACING">      0.50000000</i>
    <i type="logical" name="KGAMMA"> T  </i>
   </separator>
   <separator name="electronic projectors" >
    <i type="logical" name="LREAL"> F  </i>
    <v name="ROPT">      0.00000000      0.00000000      0.00000000      0.00000000</v>
    <i type="int" name="LMAXPAW">  -100</i>
    <i type="int" name="LMAXMIX">     2</i>
    <i type="logical" name="NLSPLINE"> F  </i>
   </separator>
   <separator name="electronic startup" >
    <i type="int" name="ISTART">     0</i>
    <i type="int" name="ICHARG">     2</i>
    <i type="int" name="INIWAV">     1</i>
   </separator>
   <separator name="electronic spin" >
    <i type="int" name="ISPIN">     1</i>
    <i type="logical" name="LNONCOLLINEAR"> F  </i>
    <v name="MAGMOM">      1.00000000      1.00000000      1.00000000      1.00000000      1.00000000      1.00000000      1.00000000      1.00000000      1.00000000      1.00000000      1.00000000      1.00000000      1.00000000      1.00000000      1.00000000      1.00000000      1.00000000      1.00000000      1.00000000      1.00000000
      1.00000000      1.00000000      1.00000000      1.00000000      1.00000000      1.00000000      1.00000000      1.00000000      1.00000000      1.00000000      1.00000000      1.00000000      1.00000000      1.00000000      1.00000000      1.00000000      1.00000000      1.00000000      1.00000000      1.00000000
      1.00000000      1.00000000      1.00000000      1.00000000      1.00000000      1.00000000      1.00000000      1.00000000      1.00000000      1.00000000      1.00000000      1.00000000      1.00000000      1.00000000      1.00000000      1.00000000      1.00000000      1.00000000      1.00000000      1.00000000
      1.00000000      1.00000000      1.00000000      1.00000000      1.00000000</v>
    <i name="NUPDOWN">     -1.00000000</i>
    <i type="logical" name="LSORBIT"> F  </i>
    <v name="SAXIS">      0.00000000      0.00000000      1.00000000</v>
    <i type="logical" name="LSPIRAL"> F  </i>
    <v name="QSPIRAL">      0.00000000      0.00000000      0.00000000</v>
    <i type="logical" name="LZEROZ"> F  </i>
   </separator>
   <separator name="electronic exchange-correlation" >
    <i type="logical" name="LASPH"> F  </i>
    <i type="logical" name="LMETAGGA"> F  </i>
   </separator>
   <separator name="electronic convergence" >
    <i type="int" name="NELM">   100</i>
    <i type="int" name="NELMDL">   -12</i>
    <i type="int" name="NELMIN">     2</i>
    <i name="ENINI">    500.00000000</i>
    <separator name="electronic convergence detail" >
     <i type="logical" name="LDIAG"> T  </i>
     <i type="logical" name="LSUBROT"> F  </i>
     <i name="WEIMIN">      0.00100000</i>
     <i name="EBREAK">      0.00000000</i>
     <i name="DEPER">      0.30000000</i>
     <i type="int" name="NRMM">     4</i>
     <i name="TIME">      0.40000000</i>
    </separator>
   </separator>
   <separator name="electronic mixer" >
    <i name="AMIX">      0.40000000</i>
    <i name="BMIX">      1.00000000</i>
    <i name="AMIN">      0.10000000</i>
    <i name="AMIX_MAG">      1.60000000</i>
    <i name="BMIX_MAG">      1.00000000</i>
    <separator name="electronic mixer details" >
     <i type="int" name="IMIX">     4</i>
     <i type="logical" name="MIXFIRST"> F  </i>
     <i type="int" name="MAXMIX">   -45</i>
     <i name="WC">    100.00000000</i>
     <i type="int" name="INIMIX">     1</i>
     <i type="int" name="MIXPRE">     1</i>
     <i type="int" name="MREMOVE">     5</i>
    </separator>
   </separator>
   <separator name="electronic dipolcorrection" >
    <i type="logical" name="LDIPOL"> F  </i>
    <i type="logical" name="LMONO"> F  </i>
    <i type="int" name="IDIPOL">     0</i>
    <i name="EPSILON">      1.00000000</i>
    <v name="DIPOL">   -100.00000000   -100.00000000   -100.00000000</v>
    <i name="EFIELD">      0.00000000</i>
   </separator>
  </separator>
  <separator name="grids" >
   <i type="int" name="NGX">    56</i>
   <i type="int" name="NGY">    56</i>
   <i type="int" name="NGZ">    70</i>
   <i type="int" name="NGXF">   112</i>
   <i type="int" name="NGYF">   112</i>
   <i type="int" name="NGZF">   140</i>
   <i type="logical" name="ADDGRID"> F  </i>
  </separator>
  <separator name="ionic" >
   <i type="int" name="NSW">     1</i>
   <i type="int" name="IBRION">     2</i>
   <i type="int" name="MDALGO">     0</i>
   <i type="int" name="ISIF">     2</i>
   <i name="PSTRESS">      0.00000000</i>
   <i name="EDIFFG">     -0.01000000</i>
   <i type="int" name="NFREE">     1</i>
   <i name="POTIM">      0.50000000</i>
   <i name="SMASS">     -3.00000000</i>
   <i name="SCALEE">      1.00000000</i>
  </separator>
  <separator name="ionic md" >
   <i name="TEBEG">      0.00010000</i>
   <i name="TEEND">      0.00010000</i>
   <i type="int" name="NBLOCK">     1</i>
   <i type="int" name="KBLOCK">     1</i>
   <i type="int" name="NPACO">   256</i>
   <i name="APACO">     16.00000000</i>
  </separator>
  <separator name="symmetry" >
   <i type="int" name="ISYM">     0</i>
   <i name="SYMPREC">      0.00001000</i>
  </separator>
  <separator name="dos" >
   <i type="int" name="LORBIT">    11</i>
   <v name="RWIGS">     -1.00000000     -1.00000000     -1.00000000     -1.00000000</v>
   <i type="int" name="NEDOS">   301</i>
   <i name="EMIN">     10.00000000</i>
   <i name="EMAX">    -10.00000000</i>
   <i name="EFERMI">      0.00000000</i>
  </separator>
  <separator name="writing" >
   <i type="int" name="NWRITE">     2</i>
   <i type="logical" name="LWAVE"> F  </i>
   <i type="logical" name="LDOWNSAMPLE"> F  </i>
   <i type="logical" name="LCHARG"> F  </i>
   <i type="logical" name="LPARD"> F  </i>
   <i type="logical" name="LVTOT"> F  </i>
   <i type="logical" name="LVHAR"> F  </i>
   <i type="logical" name="LELF"> F  </i>
   <i type="logical" name="LOPTICS"> F  </i>
   <v name="STM">      0.00000000      0.00000000      0.00000000      0.00000000      0.00000000      0.00000000      0.00000000</v>
  </separator>
  <separator name="performance" >
   <i type="int" name="NPAR">     8</i>
   <i type="int" name="NSIM">     4</i>
   <i type="int" name="NBLK">    -1</i>
   <i type="logical" name="LPLANE"> T  </i>
   <i type="logical" name="LSCALAPACK"> T  </i>
   <i type="logical" name="LSCAAWARE"> F  </i>
   <i type="logical" name="LSCALU"> F  </i>
   <i type="logical" name="LASYNC"> F  </i>
   <i type="logical" name="LORBITALREAL"> F  </i>
  </separator>
  <separator name="miscellaneous" >
   <i type="int" name="IDIOT">     3</i>
   <i type="int" name="ISPECIAL">     0</i>
   <i type="logical" name="LMUSIC"> F  </i>
   <v name="POMASS">      7.01000000     30.97400000     32.06600000     35.45300000</v>
   <v name="DARWINR">      0.00000000      0.00000000      0.00000000      0.00000000</v>
   <v name="DARWINV">      1.00000000      1.00000000      1.00000000      1.00000000</v>
   <i type="logical" name="LCORR"> T  </i>
  </separator>
  <i type="logical" name="GGA_COMPAT"> T  </i>
  <i type="logical" name="LBERRY"> F  </i>
  <i type="int" name="ICORELEVEL">     0</i>
  <i type="logical" name="LDAU"> F  </i>
  <i type="int" name="I_CONSTRAINED_M">     0</i>
  <separator name="electronic exchange-correlation" >
   <i type="string" name="GGA">--</i>
   <i type="int" name="VOSKOWN">     0</i>
   <i type="logical" name="LHFCALC"> F  </i>
   <i type="string" name="PRECFOCK"></i>
   <i type="logical" name="LSYMGRAD"> F  </i>
   <i type="logical" name="LHFONE"> F  </i>
   <i type="logical" name="LRHFCALC"> F  </i>
   <i type="logical" name="LTHOMAS"> F  </i>
   <i type="logical" name="LMODELHF"> F  </i>
   <i name="ENCUT4O">     -1.00000000</i>
   <i type="int" name="EXXOEP">     0</i>
   <i type="int" name="FOURORBIT">     0</i>
   <i name="AEXX">      0.00000000</i>
   <i name="HFALPHA">      0.00000000</i>
   <i name="MCALPHA">      0.00000000</i>
   <i name="ALDAX">      1.00000000</i>
   <i name="AGGAX">      1.00000000</i>
   <i name="ALDAC">      1.00000000</i>
   <i name="AGGAC">      1.00000000</i>
   <i type="int" name="NKREDX">     1</i>
   <i type="int" name="NKREDY">     1</i>
   <i type="int" name="NKREDZ">     1</i>
   <i type="logical" name="SHIFTRED"> F  </i>
   <i type="logical" name="ODDONLY"> F  </i>
   <i type="logical" name="EVENONLY"> F  </i>
   <i type="int" name="LMAXFOCK">     0</i>
   <i type="int" name="NMAXFOCKAE">     0</i>
   <i type="logical" name="LFOCKAEDFT"> F  </i>
   <i name="HFSCREEN">      0.00000000</i>
   <i name="HFSCREENC">      0.00000000</i>
   <i type="int" name="NBANDSGWLOW">     0</i>
  </separator>
  <separator name="vdW DFT" >
   <i type="logical" name="LUSE_VDW"> F  </i>
   <i name="Zab_VDW">     -0.84910000</i>
   <i name="PARAM1">      0.12340000</i>
   <i name="PARAM2">      1.00000000</i>
   <i name="PARAM3">      0.00000000</i>
  </separator>
  <separator name="model GW" >
   <i type="int" name="MODEL_GW">     0</i>
   <i name="MODEL_EPS0">     11.97712500</i>
   <i name="MODEL_ALPHA">      1.00000000</i>
  </separator>
  <separator name="linear response parameters" >
   <i type="logical" name="LEPSILON"> F  </i>
   <i type="logical" name="LRPA"> F  </i>
   <i type="logical" name="LNABLA"> F  </i>
   <i type="logical" name="LVEL"> F  </i>
   <i type="int" name="KINTER">     0</i>
   <i name="CSHIFT">      0.10000000</i>
   <i name="OMEGAMAX">     -1.00000000</i>
   <i name="DEG_THRESHOLD">      0.00200000</i>
   <i name="RTIME">     -0.10000000</i>
   <i name="WPLASMAI">      0.00000000</i>
   <v name="DFIELD">      0.00000000      0.00000000      0.00000000</v>
   <v name="WPLASMA">      0.00000000      0.00000000      0.00000000      0.00000000      0.00000000      0.00000000      0.00000000      0.00000000      0.00000000</v>
  </separator>
  <separator name="orbital magnetization" >
   <i type="logical" name="NUCIND"> F  </i>
   <v name="MAGPOS">      0.00000000      0.00000000      0.00000000</v>
   <i type="logical" name="LNICSALL"> T  </i>
   <i type="logical" name="ORBITALMAG"> F  </i>
   <i type="logical" name="LMAGBLOCH"> F  </i>
   <i type="logical" name="LCHIMAG"> F  </i>
   <i type="logical" name="LGAUGE"> T  </i>
   <i type="int" name="MAGATOM">     0</i>
   <v name="MAGDIPOL">      0.00000000      0.00000000      0.00000000</v>
   <v name="AVECCONST">      0.00000000      0.00000000      0.00000000</v>
  </separator>
  <separator name="response functions" >
   <i type="logical" name="LADDER"> F  </i>
   <i type="logical" name="LRPAFORCE"> F  </i>
   <i type="logical" name="LFXC"> F  </i>
   <i type="logical" name="LHARTREE"> T  </i>
   <i type="int" name="IBSE">     0</i>
   <v type="int" name="KPOINT">    -1     0     0     0</v>
   <i type="logical" name="LTCTE"> F  </i>
   <i type="logical" name="LTETE"> F  </i>
   <i type="logical" name="LTRIPLET"> F  </i>
   <i type="logical" name="LFXCEPS"> F  </i>
   <i type="logical" name="LFXHEG"> F  </i>
   <i type="int" name="NATURALO">     2</i>
   <i type="logical" name="L2ORDER"> F  </i>
   <i type="logical" name="LMP2LT"> F  </i>
   <i type="logical" name="LUSEW"> F  </i>
   <i name="ENCUTGW">     -2.00000000</i>
   <i name="ENCUTGWSOFT">     -2.00000000</i>
   <i name="ENCUTLF">     -1.00000000</i>
   <i type="int" name="LMAXMP2">    -1</i>
   <i name="SCISSOR">      0.00000000</i>
   <i type="int" name="NOMEGA">     0</i>
   <i type="int" name="NOMEGAR">     0</i>
   <i type="int" name="NBANDSGW">    -1</i>
   <i type="int" name="NBANDSO">    -1</i>
   <i type="int" name="NBANDSV">    -1</i>
   <i type="int" name="NELM">   100</i>
   <i type="int" name="NELMHF">     1</i>
   <i type="int" name="DIM">     3</i>
   <i type="int" name="ANTIRES">     0</i>
   <i name="OMEGAMAX">    -30.00000000</i>
   <i name="OMEGAMIN">    -30.00000000</i>
   <i name="OMEGATL">   -200.00000000</i>
   <i type="int" name="OMEGAGRID">   140</i>
   <i name="CSHIFT">     -0.10000000</i>
   <i type="logical" name="SELFENERGY"> F  </i>
   <i type="logical" name="LSPECTRAL"> F  </i>
   <i type="logical" name="LSPECTRALGW"> F  </i>
   <i type="logical" name="LSINGLES"> F  </i>
   <i type="logical" name="LFERMIGW"> F  </i>
   <i type="logical" name="ODDONLYGW"> F  </i>
   <i type="logical" name="EVENONLYGW"> F  </i>
   <i type="int" name="NKREDLFX">     1</i>
   <i type="int" name="NKREDLFY">     1</i>
   <i type="int" name="NKREDLFZ">     1</i>
   <i type="int" name="MAXMEM">  2800</i>
   <i type="int" name="TELESCOPE">     0</i>
   <i type="int" name="TAUPAR">     1</i>
   <i type="int" name="OMEGAPAR">    -1</i>
   <i name="LAMBDA">      1.00000000</i>
  </separator>
  <separator name="External order field" >
   <i name="OFIELD_KAPPA">      0.00000000</i>
   <v name="OFIELD_K">      0.00000000      0.00000000      0.00000000</v>
   <i name="OFIELD_Q6_NEAR">      0.00000000</i>
   <i name="OFIELD_Q6_FAR">      0.00000000</i>
   <i name="OFIELD_A">      0.00000000</i>
  </separator>
 </parameters>
 <atominfo>
  <atoms>      65 </atoms>
  <types>       4 </types>
  <array name="atoms" >
   <dimension dim="1">ion</dimension>
   <field type="string">element</field>
   <field type="int">atomtype</field>
   <set>
    <rc><c>Li</c><c>   1</c></rc>
    <rc><c>Li</c><c>   1</c></rc>
    <rc><c>Li</c><c>   1</c></rc>
    <rc><c>Li</c><c>   1</c></rc>
    <rc><c>Li</c><c>   1</c></rc>
    <rc><c>Li</c><c>   1</c></rc>
    <rc><c>Li</c><c>   1</c></rc>
    <rc><c>Li</c><c>   1</c></rc>
    <rc><c>Li</c><c>   1</c></rc>
    <rc><c>Li</c><c>   1</c></rc>
    <rc><c>Li</c><c>   1</c></rc>
    <rc><c>Li</c><c>   1</c></rc>
    <rc><c>Li</c><c>   1</c></rc>
    <rc><c>Li</c><c>   1</c></rc>
    <rc><c>Li</c><c>   1</c></rc>
    <rc><c>Li</c><c>   1</c></rc>
    <rc><c>Li</c><c>   1</c></rc>
    <rc><c>Li</c><c>   1</c></rc>
    <rc><c>Li</c><c>   1</c></rc>
    <rc><c>Li</c><c>   1</c></rc>
    <rc><c>Li</c><c>   1</c></rc>
    <rc><c>Li</c><c>   1</c></rc>
    <rc><c>Li</c><c>   1</c></rc>
    <rc><c>Li</c><c>   1</c></rc>
    <rc><c>Li</c><c>   1</c></rc>
    <rc><c>Li</c><c>   1</c></rc>
    <rc><c>Li</c><c>   1</c></rc>
    <rc><c>Li</c><c>   1</c></rc>
    <rc><c>Li</c><c>   1</c></rc>
    <rc><c>Li</c><c>   1</c></rc>
    <rc><c>P </c><c>   2</c></rc>
    <rc><c>P </c><c>   2</c></rc>
    <rc><c>P </c><c>   2</c></rc>
    <rc><c>P </c><c>   2</c></rc>
    <rc><c>P </c><c>   2</c></rc>
    <rc><c>S </c><c>   3</c></rc>
    <rc><c>S </c><c>   3</c></rc>
    <rc><c>S </c><c>   3</c></rc>
    <rc><c>S </c><c>   3</c></rc>
    <rc><c>S </c><c>   3</c></rc>
    <rc><c>S </c><c>   3</c></rc>
    <rc><c>S </c><c>   3</c></rc>
    <rc><c>S </c><c>   3</c></rc>
    <rc><c>S </c><c>   3</c></rc>
    <rc><c>S </c><c>   3</c></rc>
    <rc><c>S </c><c>   3</c></rc>
    <rc><c>S </c><c>   3</c></rc>
    <rc><c>S </c><c>   3</c></rc>
    <rc><c>S </c><c>   3</c></rc>
    <rc><c>S </c><c>   3</c></rc>
    <rc><c>S </c><c>   3</c></rc>
    <rc><c>S </c><c>   3</c></rc>
    <rc><c>S </c><c>   3</c></rc>
    <rc><c>S </c><c>   3</c></rc>
    <rc><c>S </c><c>   3</c></rc>
    <rc><c>S </c><c>   3</c></rc>
    <rc><c>S </c><c>   3</c></rc>
    <rc><c>S </c><c>   3</c></rc>
    <rc><c>S </c><c>   3</c></rc>
    <rc><c>S </c><c>   3</c></rc>
    <rc><c>Cl</c><c>   4</c></rc>
    <rc><c>Cl</c><c>   4</c></rc>
    <rc><c>Cl</c><c>   4</c></rc>
    <rc><c>Cl</c><c>   4</c></rc>
    <rc><c>Cl</c><c>   4</c></rc>
   </set>
  </array>
  <array name="atomtypes" >
   <dimension dim="1">type</dimension>
   <field type="int">atomspertype</field>
   <field type="string">element</field>
   <field>mass</field>
   <field>valence</field>
   <field type="string">pseudopotential</field>
   <set>
    <rc><c>  30</c><c>Li</c><c>      7.01000000</c><c>      3.00000000</c><c>  PAW_PBE Li_sv 10Sep2004               </c></rc>
    <rc><c>   5</c><c>P </c><c>     30.97400000</c><c>      5.00000000</c><c>  PAW_PBE P 06Sep2000                   </c></rc>
    <rc><c>  25</c><c>S </c><c>     32.06600000</c><c>      6.00000000</c><c>  PAW_PBE S 06Sep2000                   </c></rc>
    <rc><c>   5</c><c>Cl</c><c>     35.45300000</c><c>      7.00000000</c><c>  PAW_PBE Cl 06Sep2000                  </c></rc>
   </set>
  </array>
 </atominfo>
 <structure name="initialpos" >
  <crystal>
   <varray name="basis" >
    <v>      10.25000000       0.00000000       0.00000000 </v>
    <v>       0.00000000      10.25000000       0.00000000 </v>
    <v>       0.00000000       0.00000000      12.35000000 </v>
   </varray>
   <i name="volume">   1297.52187500 </i>
   <varray name="rec_basis" >
    <v>       0.09756098       0.00000000       0.00000000 </v>
    <v>       0.00000000       0.09756098       0.00000000 </v>
    <v>       0.00000000       0.00000000       0.08097166 </v>
   </varray>
  </crystal>
  <varray name="positions" >
   <v>       0.61728585       0.89926829       0.99857490 </v>
   <v>       0.73694732       0.56669171       0.61228826 </v>
   <v>       0.23767122       0.17501951       0.03302834 </v>
   <v>       0.14770927       0.74004488       0.20695142 </v>
   <v>       0.30035122       0.21346537       0.32137004 </v>
   <v>       0.19593951       0.04620595       0.66205587 </v>
   <v>       0.73404195       0.55664390       0.21535628 </v>
   <v>       0.51384390       0.06584956       0.30101943 </v>
   <v>       0.98110244       0.93692390       0.57720972 </v>
   <v>       0.94466341       0.40800683       0.22506478 </v>
   <v>       0.42815415       0.96372683       0.52759433 </v>
   <v>       0.88766537       0.58370439       0.00557081 </v>
   <v>       0.02381112       0.36629756       0.73273684 </v>
   <v>       0.29703415       0.52344098       0.59692794 </v>
   <v>       0.62825463       0.22432098       0.98604049 </v>
   <v>       0.86164000       0.18555902       0.82357085 </v>
   <v>       0.62765659       0.53647024       0.98651012 </v>
   <v>       0.47464683       0.40304878       0.43191741 </v>
   <v>       0.46932976       0.66555707       0.14348988 </v>
   <v>       0.20815610       0.75524195       0.86757085 </v>
   <v>       0.70289951       0.23682439       0.21813198 </v>
   <v>       0.96515220       0.69801659       0.73280405 </v>
   <v>       0.01223571       0.37254439       0.45972632 </v>
   <v>       0.91093171       0.20106049       0.04223368 </v>
   <v>       0.72176488       0.13802146       0.44725344 </v>
   <v>       0.54102341       0.63165659       0.77410607 </v>
   <v>       0.62583512       0.81676293       0.25198947 </v>
   <v>       0.69730732       0.02263327       0.77294089 </v>
   <v>       0.60238537       0.27702732       0.61938462 </v>
   <v>       0.87212293       0.86903902       0.04343320 </v>
   <v>       0.28701463       0.60822439       0.33739676 </v>
   <v>       0.28471220       0.46430927       0.88403239 </v>
   <v>       0.09501951       0.43227415       0.97684211 </v>
   <v>       0.19796390       0.71064780       0.48829717 </v>
   <v>       0.99190244       0.62067220       0.45381457 </v>
   <v>       0.36972488       0.10392683       0.80675061 </v>
   <v>       0.38484878       0.88637268       0.21774413 </v>
   <v>       0.43324000       0.91012683       0.82772470 </v>
   <v>       0.19800390       0.90862244       0.47786316 </v>
   <v>       0.86641951       0.73687122       0.54661215 </v>
   <v>       0.02622137       0.19740976       0.59277085 </v>
   <v>       0.49438634       0.61642146       0.33687206 </v>
   <v>       0.39798244       0.61540195       0.94846154 </v>
   <v>       0.17512195       0.39060195       0.13714656 </v>
   <v>       0.18088488       0.55500488       0.75117004 </v>
   <v>       0.77597463       0.37791707       0.08219919 </v>
   <v>       0.76989756       0.57340098       0.81825101 </v>
   <v>       0.07878985       0.24431707       0.90414575 </v>
   <v>       0.94895902       0.65387024       0.29029150 </v>
   <v>       0.09342332       0.21386829       0.18966316 </v>
   <v>       0.78359512       0.04382146       0.95106073 </v>
   <v>       0.83549659       0.12405659       0.61503158 </v>
   <v>       0.48605171       0.17282634       0.46324291 </v>
   <v>       0.68723122       0.72244780       0.08743563 </v>
   <v>       0.80211610       0.39973073       0.73818462 </v>
   <v>       0.46108683       0.18844390       0.13979433 </v>
   <v>       0.53640976       0.21832780       0.80276113 </v>
   <v>       0.54270634       0.85408488       0.68963725 </v>
   <v>       0.41124000       0.00744147       0.08076348 </v>
   <v>       0.24436195       0.42751415       0.41211012 </v>
   <v>       0.52292195       0.49862439       0.60979919 </v>
   <v>       0.79341073       0.34696780       0.37573603 </v>
   <v>       0.07352644       0.90025561       0.76138057 </v>
   <v>       0.74403707       0.01861902       0.28581377 </v>
   <v>       0.06799717       0.75996293       0.02861798 </v>
  </varray>
 </structure>
 <calculation>
  <scstep>
   <time name="diag">    0.25    0.26</time>
   <time name="diis">    0.34    0.34</time>
   <time name="orth">    0.02    0.02</time>
   <time name="total">    0.71    0.76</time>
   <energy>
    <i name="alphaZ">    256.70245505 </i>
    <i name="ewald">  -9939.26450223 </i>
    <i name="hartreedc">  -3334.42216604 </i>
    <i name="XCdc">    791.59961493 </i>
    <i name="pawpsdc">  10155.13001117 </i>
    <i name="pawaedc"> -10497.29644279 </i>
    <i name="eentropy">     -0.04322467 </i>
    <i name="bandstr">  -4500.67697161 </i>
    <i name="atom">  15932.49537490 </i>
    <i name="e_fr_energy">  -1135.77585129 </i>
    <i name="e_wo_entrp">  -1135.73262662 </i>
    <i name="e_0_energy">  -1135.75423896 </i>
   </energy>
  </scstep>
  <scstep>
   <time name="diag">    0.19    0.19</time>
   <time name="diis">    0.33    0.33</time>
   <time name="orth">    0.02    0.02</time>
   <time name="total">    0.54    0.54</time>
   <energy>
    <i name="e_fr_energy">    743.39097749 </i>
    <i name="e_wo_entrp">    743.42907293 </i>
    <i name="e_0_energy">    743.41002521 </i>
   </energy>
  </scstep>
  <scstep>
   <time name="diag">    0.19    0.19</time>
   <time name="diis">    0.33    0.33</time>
   <time name="orth">    0.02    0.02</time>
   <time name="total">    0.54    0.54</time>
   <energy>
    <i name="e_fr_energy">    235.90679154 </i>
    <i name="e_wo_entrp">    235.91982419 </i>
    <i name="e_0_energy">    235.91330787 </i>
   </energy>
  </scstep>
  <scstep>
   <time name="diag">    0.19    0.19</time>
   <time name="diis">    0.33    0.33</time>
   <time name="orth">    0.02    0.02</time>
   <time name="total">    0.53    0.53</time>
   <energy>
    <i name="e_fr_energy">    -19.86724062 </i>
    <i name="e_wo_entrp">    -19.81783132 </i>
    <i name="e_0_energy">    -19.84253597 </i>
   </energy>
  </scstep>
  <scstep>
   <time name="diag">    0.19    0.19</time>
   <time name="diis">    0.33    0.33</time>
   <time name="orth">    0.02    0.02</time>
   <time name="total">    0.53    0.53</time>
   <energy>
    <i name="e_fr_energy">   -131.76745641 </i>
    <i name="e_wo_entrp">   -131.76745641 </i>
    <i name="e_0_energy">   -131.76745641 </i>
   </energy>
  </scstep>
  <scstep>
   <time name="diag">    0.18    0.18</time>
   <time name="diis">    0.33    0.33</time>
   <time name="orth">    0.02    0.02</time>
   <time name="total">    0.53    0.53</time>
   <energy>
    <i name="e_fr_energy">   -177.30431824 </i>
    <i name="e_wo_entrp">   -177.30431824 </i>
    <i name="e_0_energy">   -177.30431824 </i>
   </energy>
  </scstep>
  <scstep>
   <time name="diag">    0.18    0.18</time>
   <time name="diis">    0.33    0.33</time>
   <time name="orth">    0.02    0.02</time>
   <time name="total">    0.53    0.53</time>
   <energy>
    <i name="e_fr_energy">   -199.08232682 </i>
    <i name="e_wo_entrp">   -199.08232682 </i>
    <i name="e_0_energy">   -199.08232682 </i>
   </energy>
  </scstep>
  <scstep>
   <time name="diag">    0.18    0.18</time>
   <time name="diis">    0.33    0.33</time>
   <time name="orth">    0.02    0.02</time>
   <time name="total">    0.53    0.53</time>
   <energy>
    <i name="e_fr_energy">   -211.80464836 </i>
    <i name="e_wo_entrp">   -211.80464836 </i>
    <i name="e_0_energy">   -211.80464836 </i>
   </energy>
  </scstep>
  <scstep>
   <time name="diag">    0.18    0.18</time>
   <time name="diis">    1.12    1.12</time>
   <time name="orth">    0.03    0.03</time>
   <time name="total">    1.33    1.33</time>
   <energy>
    <i name="e_fr_energy">   -245.92647578 </i>
    <i name="e_wo_entrp">   -245.92647578 </i>
    <i name="e_0_energy">   -245.92647578 </i>
   </energy>
  </scstep>
  <scstep>
   <time name="diag">    0.20    0.20</time>
   <time name="diis">    1.32    1.32</time>
   <time name="orth">    0.03    0.03</time>
   <time name="total">    1.54    1.54</time>
   <energy>
    <i name="e_fr_energy">   -263.18737524 </i>
    <i name="e_wo_entrp">   -263.18737524 </i>
    <i name="e_0_energy">   -263.18737524 </i>
   </energy>
  </scstep>
  <scstep>
   <time name="diag">    0.18    0.18</time>
   <time name="diis">    1.11    1.11</time>
   <time name="orth">    0.03    0.03</time>
   <time name="total">    1.32    1.32</time>
   <energy>
    <i name="e_fr_energy">   -267.07381215 </i>
    <i name="e_wo_entrp">   -267.07381215 </i>
    <i name="e_0_energy">   -267.07381215 </i>
   </energy>
  </scstep>
  <scstep>
   <time name="diag">    0.19    0.19</time>
   <time name="diis">    1.09    1.09</time>
   <time name="orth">    0.03    0.03</time>
   <time name="total">    1.36    1.37</time>
   <energy>
    <i name="e_fr_energy">   -269.17522900 </i>
    <i name="e_wo_entrp">   -269.17522900 </i>
    <i name="e_0_energy">   -269.17522900 </i>
   </energy>
  </scstep>
  <scstep>
   <time name="diag">    0.18    0.18</time>
   <time name="diis">    0.85    0.85</time>
   <time name="orth">    0.03    0.03</time>
   <time name="total">    1.19    1.19</time>
   <energy>
    <i name="e_fr_energy">   -260.71127701 </i>
    <i name="e_wo_entrp">   -260.71127701 </i>
    <i name="e_0_energy">   -260.71127701 </i>
   </energy>
  </scstep>
  <scstep>
   <time name="diag">    0.18    0.18</time>
   <time name="diis">    0.88    0.89</time>
   <time name="orth">    0.03    0.03</time>
   <time name="total">    1.22    1.23</time>
   <energy>
    <i name="e_fr_energy">   -259.71221961 </i>
    <i name="e_wo_entrp">   -259.71221961 </i>
    <i name="e_0_energy">   -259.71221961 </i>
   </energy>
  </scstep>
  <scstep>
   <time name="diag">    0.18    0.18</time>
   <time name="diis">    1.00    1.00</time>
   <time name="orth">    0.03    0.03</time>
   <time name="total">    1.33    1.33</time>
   <energy>
    <i name="e_fr_energy">   -259.82267083 </i>
    <i name="e_wo_entrp">   -259.82267083 </i>
    <i name="e_0_energy">   -259.82267083 </i>
   </energy>
  </scstep>
  <scstep>
   <time name="diag">    0.18    0.18</time>
   <time name="diis">    1.08    1.08</time>
   <time name="orth">    0.03    0.03</time>
   <time name="total">    1.42    1.42</time>
   <energy>
    <i name="e_fr_energy">   -259.94532533 </i>
    <i name="e_wo_entrp">   -259.94532533 </i>
    <i name="e_0_energy">   -259.94532533 </i>
   </energy>
  </scstep>
  <scstep>
   <time name="diag">    0.18    0.18</time>
   <time name="diis">    1.14    1.14</time>
   <time name="orth">    0.03    0.03</time>
   <time name="total">    1.48    1.48</time>
   <energy>
    <i name="e_fr_energy">   -260.02800232 </i>
    <i name="e_wo_entrp">   -260.02800232 </i>
    <i name="e_0_energy">   -260.02800232 </i>
   </energy>
  </scstep>
  <scstep>
   <time name="diag">    0.20    0.20</time>
   <time name="diis">    1.08    1.08</time>
   <time name="orth">    0.03    0.03</time>
   <time name="total">    1.44    1.44</time>
   <energy>
    <i name="e_fr_energy">   -260.07442450 </i>
    <i name="e_wo_entrp">   -260.07442450 </i>
    <i name="e_0_energy">   -260.07442450 </i>
   </energy>
  </scstep>
  <scstep>
   <time name="diag">    0.18    0.18</time>
   <time name="diis">    1.11    1.11</time>
   <time name="orth">    0.03    0.03</time>
   <time name="total">    1.45    1.45</time>
   <energy>
    <i name="e_fr_energy">   -260.10702449 </i>
    <i name="e_wo_entrp">   -260.10702449 </i>
    <i name="e_0_energy">   -260.10702449 </i>
   </energy>
  </scstep>
  <scstep>
   <time name="diag">    0.18    0.18</time>
   <time name="diis">    1.12    1.12</time>
   <time name="orth">    0.03    0.03</time>
   <time name="total">    1.46    1.46</time>
   <energy>
    <i name="e_fr_energy">   -260.12130490 </i>
    <i name="e_wo_entrp">   -260.12130490 </i>
    <i name="e_0_energy">   -260.12130490 </i>
   </energy>
  </scstep>
  <scstep>
   <time name="diag">    0.18    0.18</time>
   <time name="diis">    1.07    1.07</time>
   <time name="orth">    0.03    0.03</time>
   <time name="total">    1.41    1.41</time>
   <energy>
    <i name="e_fr_energy">   -260.12934266 </i>
    <i name="e_wo_entrp">   -260.12934266 </i>
    <i name="e_0_energy">   -260.12934266 </i>
   </energy>
  </scstep>
  <scstep>
   <time name="diag">    0.18    0.18</time>
   <time name="diis">    1.08    1.08</time>
   <time name="orth">    0.03    0.03</time>
   <time name="total">    1.41    1.41</time>
   <energy>
    <i name="e_fr_energy">   -260.13388417 </i>
    <i name="e_wo_entrp">   -260.13388417 </i>
    <i name="e_0_energy">   -260.13388417 </i>
   </energy>
  </scstep>
  <scstep>
   <time name="diag">    0.18    0.18</time>
   <time name="diis">    1.08    1.08</time>
   <time name="orth">    0.03    0.03</time>
   <time name="total">    1.43    1.42</time>
   <energy>
    <i name="e_fr_energy">   -260.13630281 </i>
    <i name="e_wo_entrp">   -260.13630281 </i>
    <i name="e_0_energy">   -260.13630281 </i>
   </energy>
  </scstep>
  <scstep>
   <time name="diag">    0.19    0.19</time>
   <time name="diis">    1.18    1.18</time>
   <time name="orth">    0.03    0.03</time>
   <time name="total">    1.55    1.55</time>
   <energy>
    <i name="e_fr_energy">   -260.13816075 </i>
    <i name="e_wo_entrp">   -260.13816075 </i>
    <i name="e_0_energy">   -260.13816075 </i>
   </energy>
  </scstep>
  <scstep>
   <time name="diag">    0.19    0.19</time>
   <time name="diis">    1.23    1.23</time>
   <time name="orth">    0.03    0.03</time>
   <time name="total">    1.60    1.60</time>
   <energy>
    <i name="e_fr_energy">   -260.13947619 </i>
    <i name="e_wo_entrp">   -260.13947619 </i>
    <i name="e_0_energy">   -260.13947619 </i>
   </energy>
  </scstep>
  <scstep>
   <time name="diag">    0.19    0.19</time>
   <time name="diis">    1.14    1.14</time>
   <time name="orth">    0.02    0.02</time>
   <time name="total">    1.50    1.49</time>
   <energy>
    <i name="e_fr_energy">   -260.14024461 </i>
    <i name="e_wo_entrp">   -260.14024461 </i>
    <i name="e_0_energy">   -260.14024461 </i>
   </energy>
  </scstep>
  <scstep>
   <time name="diag">    0.18    0.18</time>
   <time name="diis">    1.13    1.13</time>
   <time name="orth">    0.02    0.02</time>
   <time name="total">    1.47    1.46</time>
   <energy>
    <i name="e_fr_energy">   -260.14074310 </i>
    <i name="e_wo_entrp">   -260.14074310 </i>
    <i name="e_0_energy">   -260.14074310 </i>
   </energy>
  </scstep>
  <scstep>
   <time name="diag">    0.18    0.18</time>
   <time name="diis">    1.13    1.13</time>
   <time name="orth">    0.03    0.03</time>
   <time name="total">    1.47    1.47</time>
   <energy>
    <i name="e_fr_energy">   -260.14104809 </i>
    <i name="e_wo_entrp">   -260.14104809 </i>
    <i name="e_0_energy">   -260.14104809 </i>
   </energy>
  </scstep>
  <scstep>
   <time name="diag">    0.18    0.18</time>
   <time name="diis">    1.04    1.04</time>
   <time name="orth">    0.03    0.03</time>
   <time name="total">    1.38    1.38</time>
   <energy>
    <i name="e_fr_energy">   -260.14117176 </i>
    <i name="e_wo_entrp">   -260.14117176 </i>
    <i name="e_0_energy">   -260.14117176 </i>
   </energy>
  </scstep>
  <scstep>
   <time name="diag">    0.18    0.18</time>
   <time name="diis">    1.13    1.13</time>
   <time name="orth">    0.03    0.03</time>
   <time name="total">    1.47    1.47</time>
   <energy>
    <i name="e_fr_energy">   -260.14126492 </i>
    <i name="e_wo_entrp">   -260.14126492 </i>
    <i name="e_0_energy">   -260.14126492 </i>
   </energy>
  </scstep>
  <scstep>
   <time name="diag">    0.19    0.18</time>
   <time name="diis">    1.17    1.17</time>
   <time name="orth">    0.03    0.03</time>
   <time name="total">    1.53    1.53</time>
   <energy>
    <i name="e_fr_energy">   -260.14131395 </i>
    <i name="e_wo_entrp">   -260.14131395 </i>
    <i name="e_0_energy">   -260.14131395 </i>
   </energy>
  </scstep>
  <scstep>
   <time name="diag">    0.18    0.18</time>
   <time name="diis">    1.10    1.09</time>
   <time name="orth">    0.02    0.02</time>
   <time name="total">    1.44    1.43</time>
   <energy>
    <i name="e_fr_energy">   -260.14128887 </i>
    <i name="e_wo_entrp">   -260.14128887 </i>
    <i name="e_0_energy">   -260.14128887 </i>
   </energy>
  </scstep>
  <scstep>
   <time name="diag">    0.19    0.19</time>
   <time name="diis">    0.98    0.99</time>
   <time name="orth">    0.02    0.02</time>
   <time name="total">    1.33    1.34</time>
   <energy>
    <i name="e_fr_energy">   -260.14137078 </i>
    <i name="e_wo_entrp">   -260.14137078 </i>
    <i name="e_0_energy">   -260.14137078 </i>
   </energy>
  </scstep>
  <scstep>
   <time name="diag">    0.18    0.18</time>
   <time name="diis">    0.98    0.98</time>
   <time name="orth">    0.02    0.02</time>
   <time name="total">    1.33    1.33</time>
   <energy>
    <i name="e_fr_energy">   -260.14143284 </i>
    <i name="e_wo_entrp">   -260.14143284 </i>
    <i name="e_0_energy">   -260.14143284 </i>
   </energy>
  </scstep>
  <scstep>
   <time name="diag">    0.18    0.18</time>
   <time name="diis">    0.84    0.84</time>
   <time name="orth">    0.02    0.02</time>
   <time name="total">    1.18    1.18</time>
   <energy>
    <i name="e_fr_energy">   -260.14145866 </i>
    <i name="e_wo_entrp">   -260.14145866 </i>
    <i name="e_0_energy">   -260.14145866 </i>
   </energy>
  </scstep>
  <scstep>
   <time name="diag">    0.18    0.18</time>
   <time name="diis">    0.83    0.83</time>
   <time name="orth">    0.02    0.02</time>
   <time name="total">    1.17    1.17</time>
   <energy>
    <i name="e_fr_energy">   -260.14147851 </i>
    <i name="e_wo_entrp">   -260.14147851 </i>
    <i name="e_0_energy">   -260.14147851 </i>
   </energy>
  </scstep>
  <scstep>
   <time name="diag">    0.18    0.18</time>
   <time name="diis">    0.83    0.82</time>
   <time name="orth">    0.02    0.02</time>
   <time name="total">    1.17    1.16</time>
   <energy>
    <i name="e_fr_energy">   -260.14148941 </i>
    <i name="e_wo_entrp">   -260.14148941 </i>
    <i name="e_0_energy">   -260.14148941 </i>
   </energy>
  </scstep>
  <scstep>
   <time name="diag">    0.18    0.18</time>
   <time name="diis">    0.89    0.89</time>
   <time name="orth">    0.03    0.03</time>
   <time name="total">    1.24    1.24</time>
   <energy>
    <i name="e_fr_energy">   -260.14150245 </i>
    <i name="e_wo_entrp">   -260.14150245 </i>
    <i name="e_0_energy">   -260.14150245 </i>
   </energy>
  </scstep>
  <scstep>
   <time name="diag">    0.20    0.20</time>
   <time name="diis">    0.71    0.71</time>
   <time name="orth">    0.03    0.03</time>
   <time name="total">    1.08    1.08</time>
   <energy>
    <i name="e_fr_energy">   -260.14150863 </i>
    <i name="e_wo_entrp">   -260.14150863 </i>
    <i name="e_0_energy">   -260.14150863 </i>
   </energy>
  </scstep>
  <scstep>
   <time name="diag">    0.18    0.18</time>
   <time name="diis">    0.71    0.71</time>
   <time name="orth">    0.03    0.03</time>
   <time name="total">    1.05    1.05</time>
   <energy>
    <i name="e_fr_energy">   -260.14151317 </i>
    <i name="e_wo_entrp">   -260.14151317 </i>
    <i name="e_0_energy">   -260.14151317 </i>
   </energy>
  </scstep>
  <scstep>
   <time name="diag">    0.18    0.18</time>
   <time name="diis">    0.79    0.79</time>
   <time name="orth">    0.03    0.03</time>
   <time name="total">    1.13    1.13</time>
   <energy>
    <i name="e_fr_energy">   -260.14152015 </i>
    <i name="e_wo_entrp">   -260.14152015 </i>
    <i name="e_0_energy">   -260.14152015 </i>
   </energy>
  </scstep>
  <scstep>
   <time name="diag">    0.18    0.18</time>
   <time name="diis">    0.79    0.79</time>
   <time name="orth">    0.03    0.03</time>
   <time name="total">    1.14    1.14</time>
   <energy>
    <i name="e_fr_energy">   -260.14152330 </i>
    <i name="e_wo_entrp">   -260.14152330 </i>
    <i name="e_0_energy">   -260.14152330 </i>
   </energy>
  </scstep>
  <scstep>
   <time name="diag">    0.18    0.18</time>
   <time name="diis">    0.78    0.78</time>
   <time name="orth">    0.03    0.03</time>
   <time name="total">    1.12    1.12</time>
   <energy>
    <i name="e_fr_energy">   -260.14153056 </i>
    <i name="e_wo_entrp">   -260.14153056 </i>
    <i name="e_0_energy">   -260.14153056 </i>
   </energy>
  </scstep>
  <scstep>
   <time name="diag">    0.18    0.18</time>
   <time name="diis">    0.76    0.76</time>
   <time name="orth">    0.03    0.03</time>
   <time name="total">    1.11    1.11</time>
   <energy>
    <i name="e_fr_energy">   -260.14153572 </i>
    <i name="e_wo_entrp">   -260.14153572 </i>
    <i name="e_0_energy">   -260.14153572 </i>
   </energy>
  </scstep>
  <scstep>
   <time name="diag">    0.18    0.18</time>
   <time name="diis">    0.70    0.70</time>
   <time name="orth">    0.03    0.03</time>
   <time name="total">    1.05    1.05</time>
   <energy>
    <i name="e_fr_energy">   -260.14153723 </i>
    <i name="e_wo_entrp">   -260.14153723 </i>
    <i name="e_0_energy">   -260.14153723 </i>
   </energy>
  </scstep>
  <scstep>
   <time name="diag">    0.18    0.18</time>
   <time name="diis">    0.72    0.72</time>
   <time name="orth">    0.03    0.03</time>
   <time name="total">    1.01    1.01</time>
   <energy>
    <i name="alphaZ">    256.70245505 </i>
    <i name="ewald">  -9939.26450223 </i>
    <i name="hartreedc">  -3508.91825629 </i>
    <i name="XCdc">    805.50586101 </i>
    <i name="pawpsdc">  22738.85779182 </i>
    <i name="pawaedc"> -23095.94001708 </i>
    <i name="eentropy">     -0.00000000 </i>
    <i name="bandstr">  -3449.58024532 </i>
    <i name="atom">  15932.49537490 </i>
    <i name="e_fr_energy">   -260.14153815 </i>
    <i name="e_wo_entrp">   -260.14153815 </i>
    <i name="e_0_energy">   -260.14153815 </i>
   </energy>
  </scstep>
  <structure>
   <crystal>
    <varray name="basis" >
     <v>      10.25000000       0.00000000       0.00000000 </v>
     <v>       0.00000000      10.25000000       0.00000000 </v>
     <v>       0.00000000       0.00000000      12.35000000 </v>
    </varray>
    <i name="volume">   1297.52187500 </i>
    <varray name="rec_basis" >
     <v>       0.09756098       0.00000000       0.00000000 </v>
     <v>       0.00000000       0.09756098       0.00000000 </v>
     <v>       0.00000000       0.00000000       0.08097166 </v>
    </varray>
   </crystal>
   <varray name="positions" >
    <v>       0.61728585       0.89926829       0.99857490 </v>
    <v>       0.73694732       0.56669171       0.61228826 </v>
    <v>       0.23767122       0.17501951       0.03302834 </v>
    <v>       0.14770927       0.74004488       0.20695142 </v>
    <v>       0.30035122       0.21346537       0.32137004 </v>
    <v>       0.19593951       0.04620595       0.66205587 </v>
    <v>       0.73404195       0.55664390       0.21535628 </v>
    <v>       0.51384390       0.06584956       0.30101943 </v>
    <v>       0.98110244       0.93692390       0.57720972 </v>
    <v>       0.94466341       0.40800683       0.22506478 </v>
    <v>       0.42815415       0.96372683       0.52759433 </v>
    <v>       0.88766537       0.58370439       0.00557081 </v>
    <v>       0.02381112       0.36629756       0.73273684 </v>
    <v>       0.29703415       0.52344098       0.59692794 </v>
    <v>       0.62825463       0.22432098       0.98604049 </v>
    <v>       0.86164000       0.18555902       0.82357085 </v>
    <v>       0.62765659       0.53647024       0.98651012 </v>
    <v>       0.47464683       0.40304878       0.43191741 </v>
    <v>       0.46932976       0.66555707       0.14348988 </v>
    <v>       0.20815610       0.75524195       0.86757085 </v>
    <v>       0.70289951       0.23682439       0.21813198 </v>
    <v>       0.96515220       0.69801659       0.73280405 </v>
    <v>       0.01223571       0.37254439       0.45972632 </v>
    <v>       0.91093171       0.20106049       0.04223368 </v>
    <v>       0.72176488       0.13802146       0.44725344 </v>
    <v>       0.54102341       0.63165659       0.77410607 </v>
    <v>       0.62583512       0.81676293       0.25198947 </v>
    <v>       0.69730732       0.02263327       0.77294089 </v>
    <v>       0.60238537       0.27702732       0.61938462 </v>
    <v>       0.87212293       0.86903902       0.04343320 </v>
    <v>       0.28701463       0.60822439       0.33739676 </v>
    <v>       0.28471220       0.46430927       0.88403239 </v>
    <v>       0.09501951       0.43227415       0.97684211 </v>
    <v>       0.19796390       0.71064780       0.48829717 </v>
    <v>       0.99190244       0.62067220       0.45381457 </v>
    <v>       0.36972488       0.10392683       0.80675061 </v>
    <v>       0.38484878       0.88637268       0.21774413 </v>
    <v>       0.43324000       0.91012683       0.82772470 </v>
    <v>       0.19800390       0.90862244       0.47786316 </v>
    <v>       0.86641951       0.73687122       0.54661215 </v>
    <v>       0.02622137       0.19740976       0.59277085 </v>
    <v>       0.49438634       0.61642146       0.33687206 </v>
    <v>       0.39798244       0.61540195       0.94846154 </v>
    <v>       0.17512195       0.39060195       0.13714656 </v>
    <v>       0.18088488       0.55500488       0.75117004 </v>
    <v>       0.77597463       0.37791707       0.08219919 </v>
    <v>       0.76989756       0.57340098       0.81825101 </v>
    <v>       0.07878985       0.24431707       0.90414575 </v>
    <v>       0.94895902       0.65387024       0.29029150 </v>
    <v>       0.09342332       0.21386829       0.18966316 </v>
    <v>       0.78359512       0.04382146       0.95106073 </v>
    <v>       0.83549659       0.12405659       0.61503158 </v>
    <v>       0.48605171       0.17282634       0.46324291 </v>
    <v>       0.68723122       0.72244780       0.08743563 </v>
    <v>       0.80211610       0.39973073       0.73818462 </v>
    <v>       0.46108683       0.18844390       0.13979433 </v>
    <v>       0.53640976       0.21832780       0.80276113 </v>
    <v>       0.54270634       0.85408488       0.68963725 </v>
    <v>       0.41124000       0.00744147       0.08076348 </v>
    <v>       0.24436195       0.42751415       0.41211012 </v>
    <v>       0.52292195       0.49862439       0.60979919 </v>
    <v>       0.79341073       0.34696780       0.37573603 </v>
    <v>       0.07352644       0.90025561       0.76138057 </v>
    <v>       0.74403707       0.01861902       0.28581377 </v>
    <v>       0.06799717       0.75996293       0.02861798 </v>
   </varray>
  </structure>
  <varray name="forces" >
   <v>      -0.34117085       0.43950894      -0.26092212 </v>
   <v>       0.11449662      -0.07534029       0.05110031 </v>
   <v>       0.15582115      -0.10668448       0.10528270 </v>
   <v>      -0.06271363       0.09711579      -0.04965441 </v>
   <v>      -0.11415347       0.07194633      -0.01279945 </v>
   <v>      -0.05934781       0.01292928      -0.03995858 </v>
   <v>       0.07057485      -0.10749853       0.02771720 </v>
   <v>       0.21034329      -0.22012638      -0.02520819 </v>
   <v>      -0.05063874       0.08439503      -0.02095654 </v>
   <v>       0.06174216      -0.02569719      -0.05243679 </v>
   <v>      -0.02530010      -0.07518678       0.09778763 </v>
   <v>      -0.10468997      -0.14757621      -0.06040215 </v>
   <v>       0.42649745       0.04891128      -0.04930130 </v>
   <v>       0.16316516       0.03170777      -0.27043802 </v>
   <v>       0.18706208      -0.17346019       0.06410862 </v>
   <v>       0.27325254       0.31181317      -0.17580168 </v>
   <v>       0.17000663      -0.16245978      -0.14215038 </v>
   <v>       0.22177285       0.00102389       0.04731464 </v>
   <v>      -0.24064542       0.13074596      -0.06537402 </v>
   <v>       0.09847151       0.10254849      -0.01048620 </v>
   <v>       0.05109165      -0.08448996       0.01906261 </v>
   <v>      -0.12015219      -0.06528334      -0.03380497 </v>
   <v>      -0.15425536      -0.02128612       0.11222727 </v>
   <v>       0.12640822      -0.15311303       0.03575473 </v>
   <v>       0.03463086       0.02645780      -0.13439129 </v>
   <v>      -0.03792413       0.00550549      -0.03297836 </v>
   <v>       0.03702509       0.20386097       0.14480005 </v>
   <v>      -0.28264556      -0.28431688      -0.08549663 </v>
   <v>       0.01534567      -0.03393233       0.23190074 </v>
   <v>      -0.05441066       0.03288411       0.09360176 </v>
   <v>      -0.21405111       0.32173901      -0.10784706 </v>
   <v>      -0.18071387      -0.57071531      -0.24599665 </v>
   <v>      -0.13212439      -0.29193767      -0.39813393 </v>
   <v>      -0.02556057      -0.99664692       0.16613000 </v>
   <v>       0.46478691      -0.09262602       0.12766500 </v>
   <v>       0.38013312      -0.16016550       0.11606841 </v>
   <v>       0.10293882       0.05948613      -0.26023205 </v>
   <v>       0.13565481       0.00140785      -0.41370771 </v>
   <v>       0.04596726       0.80183209      -0.17754675 </v>
   <v>       0.11471250       0.14594775       0.04215560 </v>
   <v>       0.26445736       0.19312943      -0.03186477 </v>
   <v>       0.01832826      -0.08832186       0.14470137 </v>
   <v>       0.19008105       0.36885162       0.19057548 </v>
   <v>      -0.03431082      -0.02702626       0.02768359 </v>
   <v>      -0.23502542      -0.07240602       0.44647900 </v>
   <v>      -0.20717328       0.51727586       0.14585986 </v>
   <v>      -0.07090279       0.86832649       0.49391318 </v>
   <v>      -0.04019752       0.51530389       0.11929302 </v>
   <v>      -0.14340366       0.00251774      -0.31794834 </v>
   <v>       0.09806501       0.05925115       0.11655942 </v>
   <v>      -0.19941734      -0.14595682       0.05078615 </v>
   <v>      -0.22551799      -0.16685515       0.25930461 </v>
   <v>      -0.04977204      -0.11555423       0.00327371 </v>
   <v>       0.28075182      -0.22736843       0.09588527 </v>
   <v>      -0.15147963      -0.70543422      -0.35282488 </v>
   <v>       0.10268483       0.58577169       0.11225714 </v>
   <v>      -0.16053051      -0.01287861      -0.33193726 </v>
   <v>      -0.21412090       0.29920723       0.36927547 </v>
   <v>      -0.15365705      -0.64000958       0.09087549 </v>
   <v>       0.00961090      -0.26327011       0.05724852 </v>
   <v>      -0.24934248       0.05875403      -0.01446709 </v>
   <v>       0.05492137       0.10656643      -0.02591141 </v>
   <v>      -0.11555159      -0.03746627       0.06254678 </v>
   <v>      -0.24105524      -0.11272356      -0.06666584 </v>
   <v>       0.01115427      -0.04290866      -0.00155048 </v>
  </varray>
  <varray name="stress" >
   <v>      -4.74405625      -5.56459647      -1.33202091 </v>
   <v>      -5.56459647       9.69459557      -2.53952692 </v>
   <v>      -1.33202090      -2.53952702       3.81690652 </v>
  </varray>
  <energy>
   <i name="e_fr_energy">   -260.14153815 </i>
   <i name="e_wo_entrp">   -260.14153815 </i>
   <i name="e_0_energy">     -0.00000000 </i>
  </energy>
  <time name="totalsc">   57.06   57.17</time>
  <eigenvalues>
   <array>
    <dimension dim="1">band</dimension>
    <dimension dim="2">kpoint</dimension>
    <dimension dim="3">spin</dimension>
    <field>eigene</field>
    <field>occ</field>
    <set>
     <set comment="spin 1">
      <set comment="kpoint 1">
       <r>  -44.0244    1.0000 </r>
       <r>  -43.7606    1.0000 </r>
       <r>  -43.7231    1.0000 </r>
       <r>  -43.6595    1.0000 </r>
       <r>  -43.6326    1.0000 </r>
       <r>  -43.6192    1.0000 </r>
       <r>  -43.6039    1.0000 </r>
       <r>  -43.5642    1.0000 </r>
       <r>  -43.5168    1.0000 </r>
       <r>  -43.4578    1.0000 </r>
       <r>  -43.4470    1.0000 </r>
       <r>  -43.4458    1.0000 </r>
       <r>  -43.4441    1.0000 </r>
       <r>  -43.4436    1.0000 </r>
       <r>  -43.4404    1.0000 </r>
       <r>  -43.3423    1.0000 </r>
       <r>  -43.2958    1.0000 </r>
       <r>  -43.2924    1.0000 </r>
       <r>  -43.2779    1.0000 </r>
       <r>  -43.2504    1.0000 </r>
       <r>  -43.2116    1.0000 </r>
       <r>  -43.1922    1.0000 </r>
       <r>  -43.1836    1.0000 </r>
       <r>  -43.1618    1.0000 </r>
       <r>  -43.1382    1.0000 </r>
       <r>  -42.9962    1.0000 </r>
       <r>  -42.9786    1.0000 </r>
       <r>  -42.9246    1.0000 </r>
       <r>  -42.8805    1.0000 </r>
       <r>  -42.7090    1.0000 </r>
       <r>  -13.9538    1.0000 </r>
       <r>  -13.7017    1.0000 </r>
       <r>  -13.3478    1.0000 </r>
       <r>  -13.2383    1.0000 </r>
       <r>  -13.0129    1.0000 </r>
       <r>  -12.9633    1.0000 </r>
       <r>  -12.8280    1.0000 </r>
       <r>  -12.7601    1.0000 </r>
       <r>  -12.3500    1.0000 </r>
       <r>  -12.1734    1.0000 </r>
       <r>  -12.1002    1.0000 </r>
       <r>  -11.9484    1.0000 </r>
       <r>  -11.9433    1.0000 </r>
       <r>  -11.7159    1.0000 </r>
       <r>  -11.2003    1.0000 </r>
       <r>  -11.1228    1.0000 </r>
       <r>  -10.7625    1.0000 </r>
       <r>  -10.3585    1.0000 </r>
       <r>  -10.3035    1.0000 </r>
       <r>  -10.0150    1.0000 </r>
       <r>   -9.6490    1.0000 </r>
       <r>   -9.3599    1.0000 </r>
       <r>   -9.2848    1.0000 </r>
       <r>   -8.9987    1.0000 </r>
       <r>   -8.9631    1.0000 </r>
       <r>   -8.7561    1.0000 </r>
       <r>   -8.2856    1.0000 </r>
       <r>   -8.1706    1.0000 </r>
       <r>   -8.0526    1.0000 </r>
       <r>   -7.8740    1.0000 </r>
       <r>   -7.7960    1.0000 </r>
       <r>   -7.4523    1.0000 </r>
       <r>   -6.6061    1.0000 </r>
       <r>   -5.9326    1.0000 </r>
       <r>   -5.3586    1.0000 </r>
       <r>   -3.8279    1.0000 </r>
       <r>   -3.5744    1.0000 </r>
       <r>   -3.4901    1.0000 </r>
       <r>   -3.3152    1.0000 </r>
       <r>   -3.0926    1.0000 </r>
       <r>   -3.0101    1.0000 </r>
       <r>   -2.9875    1.0000 </r>
       <r>   -2.8622    1.0000 </r>
       <r>   -2.6807    1.0000 </r>
       <r>   -2.6170    1.0000 </r>
       <r>   -2.5486    1.0000 </r>
       <r>   -2.5260    1.0000 </r>
       <r>   -2.4942    1.0000 </r>
       <r>   -2.3884    1.0000 </r>
       <r>   -2.3539    1.0000 </r>
       <r>   -2.2396    1.0000 </r>
       <r>   -2.2272    1.0000 </r>
       <r>   -2.1223    1.0000 </r>
       <r>   -2.0392    1.0000 </r>
       <r>   -2.0306    1.0000 </r>
       <r>   -1.9401    1.0000 </r>
       <r>   -1.8658    1.0000 </r>
       <r>   -1.8145    1.0000 </r>
       <r>   -1.7745    1.0000 </r>
       <r>   -1.7036    1.0000 </r>
       <r>   -1.6418    1.0000 </r>
       <r>   -1.6079    1.0000 </r>
       <r>   -1.5042    1.0000 </r>
       <r>   -1.4762    1.0000 </r>
       <r>   -1.4105    1.0000 </r>
       <r>   -1.3606    1.0000 </r>
       <r>   -1.3150    1.0000 </r>
       <r>   -1.2780    1.0000 </r>
       <r>   -1.2223    1.0000 </r>
       <r>   -1.1800    1.0000 </r>
       <r>   -1.1379    1.0000 </r>
       <r>   -1.0894    1.0000 </r>
       <r>   -0.9943    1.0000 </r>
       <r>   -0.9627    1.0000 </r>
       <r>   -0.8980    1.0000 </r>
       <r>   -0.8527    1.0000 </r>
       <r>   -0.7617    1.0000 </r>
       <r>   -0.6832    1.0000 </r>
       <r>   -0.6236    1.0000 </r>
       <r>   -0.5716    1.0000 </r>
       <r>   -0.5378    1.0000 </r>
       <r>   -0.4495    1.0000 </r>
       <r>   -0.3900    1.0000 </r>
       <r>   -0.3190    1.0000 </r>
       <r>   -0.3109    1.0000 </r>
       <r>   -0.2389    1.0000 </r>
       <r>   -0.1640    1.0000 </r>
       <r>   -0.1284    1.0000 </r>
       <r>    0.0022    1.0000 </r>
       <r>    0.0333    1.0000 </r>
       <r>    0.1024    1.0000 </r>
       <r>    0.1213    1.0000 </r>
       <r>    0.1679    1.0000 </r>
       <r>    0.2175    1.0000 </r>
       <r>    0.2909    1.0000 </r>
       <r>    0.3442    1.0000 </r>
       <r>    0.3880    1.0000 </r>
       <r>    0.4072    1.0000 </r>
       <r>    0.5443    1.0000 </r>
       <r>    0.5707    1.0000 </r>
       <r>    0.5869    1.0000 </r>
       <r>    0.6285    1.0000 </r>
       <r>    0.6926    1.0000 </r>
       <r>    0.7453    1.0000 </r>
       <r>    0.8104    1.0000 </r>
       <r>    0.8305    1.0000 </r>
       <r>    0.9024    1.0000 </r>
       <r>    1.0192    1.0000 </r>
       <r>    1.0250    1.0000 </r>
       <r>    1.1265    1.0000 </r>
       <r>    1.1831    1.0000 </r>
       <r>    1.2584    1.0000 </r>
       <r>    1.3299    1.0000 </r>
       <r>    1.3918    1.0000 </r>
       <r>    1.4148    1.0000 </r>
       <r>    1.5555    1.0000 </r>
       <r>    1.6921    1.0000 </r>
       <r>    1.7191    1.0000 </r>
       <r>    1.8133    1.0000 </r>
       <r>    1.8889    1.0000 </r>
       <r>    3.7634    0.0000 </r>
       <r>    3.9016    0.0000 </r>
       <r>    4.1042    0.0000 </r>
       <r>    4.3083    0.0000 </r>
       <r>    4.4042    0.0000 </r>
       <r>    4.5177    0.0000 </r>
       <r>    4.6553    0.0000 </r>
       <r>    4.7110    0.0000 </r>
       <r>    4.8143    0.0000 </r>
       <r>    4.9725    0.0000 </r>
       <r>    5.0380    0.0000 </r>
       <r>    5.1015    0.0000 </r>
       <r>    5.2680    0.0000 </r>
       <r>    5.3218    0.0000 </r>
       <r>    5.4156    0.0000 </r>
       <r>    5.5768    0.0000 </r>
       <r>    5.6317    0.0000 </r>
       <r>    5.8792    0.0000 </r>
       <r>    5.9881    0.0000 </r>
       <r>    6.0438    0.0000 </r>
       <r>    6.2520    0.0000 </r>
       <r>    6.3127    0.0000 </r>
       <r>    6.4322    0.0000 </r>
       <r>    6.4643    0.0000 </r>
       <r>    6.5794    0.0000 </r>
       <r>    6.6403    0.0000 </r>
       <r>    6.8042    0.0000 </r>
       <r>    6.8853    0.0000 </r>
       <r>    6.9457    0.0000 </r>
       <r>    7.0867    0.0000 </r>
       <r>    7.1326    0.0000 </r>
       <r>    7.2320    0.0000 </r>
       <r>    7.3207    0.0000 </r>
       <r>    7.4643    0.0000 </r>
      </set>
     </set>
    </set>
   </array>
  </eigenvalues>
  <separator name="orbital magnetization" >
   <v name="MAGDIPOLOUT">      0.00000000      0.00000000      0.00000000</v>
  </separator>
  <dos>
   <i name="efermi">      2.15664787 </i>
   <total>
    <array>
     <dimension dim="1">gridpoints</dimension>
     <dimension dim="2">spin</dimension>
     <field>energy</field>
     <field>total</field>
     <field>integrated</field>
     <set>
      <set comment="spin 1">
       <r>   -46.5989     0.0000     0.0000 </r>
       <r>   -46.4101     0.0000     0.0000 </r>
       <r>   -46.2213     0.0000     0.0000 </r>
       <r>   -46.0325     0.0000     0.0000 </r>
       <r>   -45.8437     0.0000     0.0000 </r>
       <r>   -45.6549     0.0000     0.0000 </r>
       <r>   -45.4661     0.0000     0.0000 </r>
       <r>   -45.2773     0.0000     0.0000 </r>
       <r>   -45.0885     0.0000     0.0000 </r>
       <r>   -44.8997     0.0000     0.0000 </r>
       <r>   -44.7109     0.0000     0.0000 </r>
       <r>   -44.5221     0.0000     0.0000 </r>
       <r>   -44.3333     0.0000     0.0000 </r>
       <r>   -44.1446     0.0036     0.0007 </r>
       <r>   -43.9558    10.3138     1.9478 </r>
       <r>   -43.7670     5.9687     3.0747 </r>
       <r>   -43.5782    57.4382    13.9185 </r>
       <r>   -43.3894    82.7189    29.5352 </r>
       <r>   -43.2006    70.4433    42.8343 </r>
       <r>   -43.0118    43.3517    51.0188 </r>
       <r>   -42.8230    36.4115    57.8930 </r>
       <r>   -42.6342    10.9788    59.9657 </r>
       <r>   -42.4454     0.1818    60.0000 </r>
       <r>   -42.2566     0.0000    60.0000 </r>
       <r>   -42.0678     0.0000    60.0000 </r>
       <r>   -41.8791     0.0000    60.0000 </r>
       <r>   -41.6903     0.0000    60.0000 </r>
       <r>   -41.5015     0.0000    60.0000 </r>
       <r>   -41.3127     0.0000    60.0000 </r>
       <r>   -41.1239     0.0000    60.0000 </r>
       <r>   -40.9351     0.0000    60.0000 </r>
       <r>   -40.7463     0.0000    60.0000 </r>
       <r>   -40.5575     0.0000    60.0000 </r>
       <r>   -40.3687     0.0000    60.0000 </r>
       <r>   -40.1799     0.0000    60.0000 </r>
       <r>   -39.9911     0.0000    60.0000 </r>
       <r>   -39.8023     0.0000    60.0000 </r>
       <r>   -39.6136     0.0000    60.0000 </r>
       <r>   -39.4248     0.0000    60.0000 </r>
       <r>   -39.2360     0.0000    60.0000 </r>
       <r>   -39.0472     0.0000    60.0000 </r>
       <r>   -38.8584     0.0000    60.0000 </r>
       <r>   -38.6696     0.0000    60.0000 </r>
       <r>   -38.4808     0.0000    60.0000 </r>
       <r>   -38.2920     0.0000    60.0000 </r>
       <r>   -38.1032     0.0000    60.0000 </r>
       <r>   -37.9144     0.0000    60.0000 </r>
       <r>   -37.7256     0.0000    60.0000 </r>
       <r>   -37.5368     0.0000    60.0000 </r>
       <r>   -37.3480     0.0000    60.0000 </r>
       <r>   -37.1593     0.0000    60.0000 </r>
       <r>   -36.9705     0.0000    60.0000 </r>
       <r>   -36.7817     0.0000    60.0000 </r>
       <r>   -36.5929     0.0000    60.0000 </r>
       <r>   -36.4041     0.0000    60.0000 </r>
       <r>   -36.2153     0.0000    60.0000 </r>
       <r>   -36.0265     0.0000    60.0000 </r>
       <r>   -35.8377     0.0000    60.0000 </r>
       <r>   -35.6489     0.0000    60.0000 </r>
       <r>   -35.4601     0.0000    60.0000 </r>
       <r>   -35.2713     0.0000    60.0000 </r>
       <r>   -35.0825     0.0000    60.0000 </r>
       <r>   -34.8938     0.0000    60.0000 </r>
       <r>   -34.7050     0.0000    60.0000 </r>
       <r>   -34.5162     0.0000    60.0000 </r>
       <r>   -34.3274     0.0000    60.0000 </r>
       <r>   -34.1386     0.0000    60.0000 </r>
       <r>   -33.9498     0.0000    60.0000 </r>
       <r>   -33.7610     0.0000    60.0000 </r>
       <r>   -33.5722     0.0000    60.0000 </r>
       <r>   -33.3834     0.0000    60.0000 </r>
       <r>   -33.1946     0.0000    60.0000 </r>
       <r>   -33.0058     0.0000    60.0000 </r>
       <r>   -32.8170     0.0000    60.0000 </r>
       <r>   -32.6283     0.0000    60.0000 </r>
       <r>   -32.4395     0.0000    60.0000 </r>
       <r>   -32.2507     0.0000    60.0000 </r>
       <r>   -32.0619     0.0000    60.0000 </r>
       <r>   -31.8731     0.0000    60.0000 </r>
       <r>   -31.6843     0.0000    60.0000 </r>
       <r>   -31.4955     0.0000    60.0000 </r>
       <r>   -31.3067     0.0000    60.0000 </r>
       <r>   -31.1179     0.0000    60.0000 </r>
       <r>   -30.9291     0.0000    60.0000 </r>
       <r>   -30.7403     0.0000    60.0000 </r>
       <r>   -30.5515     0.0000    60.0000 </r>
       <r>   -30.3628     0.0000    60.0000 </r>
       <r>   -30.1740     0.0000    60.0000 </r>
       <r>   -29.9852     0.0000    60.0000 </r>
       <r>   -29.7964     0.0000    60.0000 </r>
       <r>   -29.6076     0.0000    60.0000 </r>
       <r>   -29.4188     0.0000    60.0000 </r>
       <r>   -29.2300     0.0000    60.0000 </r>
       <r>   -29.0412     0.0000    60.0000 </r>
       <r>   -28.8524     0.0000    60.0000 </r>
       <r>   -28.6636     0.0000    60.0000 </r>
       <r>   -28.4748     0.0000    60.0000 </r>
       <r>   -28.2860     0.0000    60.0000 </r>
       <r>   -28.0972     0.0000    60.0000 </r>
       <r>   -27.9085     0.0000    60.0000 </r>
       <r>   -27.7197     0.0000    60.0000 </r>
       <r>   -27.5309     0.0000    60.0000 </r>
       <r>   -27.3421     0.0000    60.0000 </r>
       <r>   -27.1533     0.0000    60.0000 </r>
       <r>   -26.9645     0.0000    60.0000 </r>
       <r>   -26.7757     0.0000    60.0000 </r>
       <r>   -26.5869     0.0000    60.0000 </r>
       <r>   -26.3981     0.0000    60.0000 </r>
       <r>   -26.2093     0.0000    60.0000 </r>
       <r>   -26.0205     0.0000    60.0000 </r>
       <r>   -25.8317     0.0000    60.0000 </r>
       <r>   -25.6430     0.0000    60.0000 </r>
       <r>   -25.4542     0.0000    60.0000 </r>
       <r>   -25.2654     0.0000    60.0000 </r>
       <r>   -25.0766     0.0000    60.0000 </r>
       <r>   -24.8878     0.0000    60.0000 </r>
       <r>   -24.6990     0.0000    60.0000 </r>
       <r>   -24.5102     0.0000    60.0000 </r>
       <r>   -24.3214     0.0000    60.0000 </r>
       <r>   -24.1326     0.0000    60.0000 </r>
       <r>   -23.9438     0.0000    60.0000 </r>
       <r>   -23.7550     0.0000    60.0000 </r>
       <r>   -23.5662     0.0000    60.0000 </r>
       <r>   -23.3775     0.0000    60.0000 </r>
       <r>   -23.1887     0.0000    60.0000 </r>
       <r>   -22.9999     0.0000    60.0000 </r>
       <r>   -22.8111     0.0000    60.0000 </r>
       <r>   -22.6223     0.0000    60.0000 </r>
       <r>   -22.4335     0.0000    60.0000 </r>
       <r>   -22.2447     0.0000    60.0000 </r>
       <r>   -22.0559     0.0000    60.0000 </r>
       <r>   -21.8671     0.0000    60.0000 </r>
       <r>   -21.6783     0.0000    60.0000 </r>
       <r>   -21.4895     0.0000    60.0000 </r>
       <r>   -21.3007     0.0000    60.0000 </r>
       <r>   -21.1119     0.0000    60.0000 </r>
       <r>   -20.9232     0.0000    60.0000 </r>
       <r>   -20.7344     0.0000    60.0000 </r>
       <r>   -20.5456     0.0000    60.0000 </r>
       <r>   -20.3568     0.0000    60.0000 </r>
       <r>   -20.1680     0.0000    60.0000 </r>
       <r>   -19.9792     0.0000    60.0000 </r>
       <r>   -19.7904     0.0000    60.0000 </r>
       <r>   -19.6016     0.0000    60.0000 </r>
       <r>   -19.4128     0.0000    60.0000 </r>
       <r>   -19.2240     0.0000    60.0000 </r>
       <r>   -19.0352     0.0000    60.0000 </r>
       <r>   -18.8464     0.0000    60.0000 </r>
       <r>   -18.6577     0.0000    60.0000 </r>
       <r>   -18.4689     0.0000    60.0000 </r>
       <r>   -18.2801     0.0000    60.0000 </r>
       <r>   -18.0913     0.0000    60.0000 </r>
       <r>   -17.9025     0.0000    60.0000 </r>
       <r>   -17.7137     0.0000    60.0000 </r>
       <r>   -17.5249     0.0000    60.0000 </r>
       <r>   -17.3361     0.0000    60.0000 </r>
       <r>   -17.1473     0.0000    60.0000 </r>
       <r>   -16.9585     0.0000    60.0000 </r>
       <r>   -16.7697     0.0000    60.0000 </r>
       <r>   -16.5809     0.0000    60.0000 </r>
       <r>   -16.3922     0.0000    60.0000 </r>
       <r>   -16.2034     0.0000    60.0000 </r>
       <r>   -16.0146     0.0000    60.0000 </r>
       <r>   -15.8258     0.0000    60.0000 </r>
       <r>   -15.6370     0.0000    60.0000 </r>
       <r>   -15.4482     0.0000    60.0000 </r>
       <r>   -15.2594     0.0000    60.0000 </r>
       <r>   -15.0706     0.0000    60.0000 </r>
       <r>   -14.8818     0.0000    60.0000 </r>
       <r>   -14.6930     0.0000    60.0000 </r>
       <r>   -14.5042     0.0000    60.0000 </r>
       <r>   -14.3154     0.0000    60.0000 </r>
       <r>   -14.1267     0.0000    60.0000 </r>
       <r>   -13.9379     7.1398    61.3479 </r>
       <r>   -13.7491     4.4114    62.1808 </r>
       <r>   -13.5603     9.6358    63.9999 </r>
       <r>   -13.3715     2.6656    64.5032 </r>
       <r>   -13.1827    17.9080    67.8841 </r>
       <r>   -12.9939    10.1285    69.7962 </r>
       <r>   -12.8051    20.5993    73.6852 </r>
       <r>   -12.6163    12.2607    76.0000 </r>
       <r>   -12.4275     0.1508    76.0284 </r>
       <r>   -12.2387    10.7765    78.0629 </r>
       <r>   -12.0499    20.0634    81.8507 </r>
       <r>   -11.8611    21.7992    85.9663 </r>
       <r>   -11.6724     9.6166    87.7818 </r>
       <r>   -11.4836     1.1558    88.0000 </r>
       <r>   -11.2948     0.0400    88.0075 </r>
       <r>   -11.1060    17.7429    91.3573 </r>
       <r>   -10.9172     3.4046    92.0000 </r>
       <r>   -10.7284     8.8232    93.6658 </r>
       <r>   -10.5396     1.7704    94.0000 </r>
       <r>   -10.3508     7.1653    95.3527 </r>
       <r>   -10.1620    14.0219    98.0000 </r>
       <r>    -9.9732     9.3376    99.7628 </r>
       <r>    -9.7844     1.2570   100.0001 </r>
       <r>    -9.5956     9.8980   101.8688 </r>
       <r>    -9.4069     1.6731   102.1846 </r>
       <r>    -9.2181    19.8952   105.9407 </r>
       <r>    -9.0293     2.6906   106.4487 </r>
       <r>    -8.8405    18.8982   110.0165 </r>
       <r>    -8.6517    10.4897   111.9969 </r>
       <r>    -8.4629     0.0166   112.0000 </r>
       <r>    -8.2741     6.6698   113.2592 </r>
       <r>    -8.0853    16.3154   116.3394 </r>
       <r>    -7.8965    11.5926   118.5280 </r>
       <r>    -7.7077    18.3243   121.9875 </r>
       <r>    -7.5189     0.3809   122.0594 </r>
       <r>    -7.3301    10.2761   123.9994 </r>
       <r>    -7.1414     0.0029   124.0000 </r>
       <r>    -6.9526     0.0000   124.0000 </r>
       <r>    -6.7638     0.0000   124.0000 </r>
       <r>    -6.5750     8.5898   125.6217 </r>
       <r>    -6.3862     2.0039   126.0000 </r>
       <r>    -6.1974     0.0000   126.0000 </r>
       <r>    -6.0086     0.1670   126.0315 </r>
       <r>    -5.8198    10.4191   127.9986 </r>
       <r>    -5.6310     0.0075   128.0000 </r>
       <r>    -5.4422     0.0954   128.0180 </r>
       <r>    -5.2534    10.4828   129.9971 </r>
       <r>    -5.0646     0.0156   130.0000 </r>
       <r>    -4.8758     0.0000   130.0000 </r>
       <r>    -4.6871     0.0000   130.0000 </r>
       <r>    -4.4983     0.0000   130.0000 </r>
       <r>    -4.3095     0.0000   130.0000 </r>
       <r>    -4.1207     0.0000   130.0000 </r>
       <r>    -3.9319     0.0173   130.0033 </r>
       <r>    -3.7431    10.4892   131.9836 </r>
       <r>    -3.5543     8.0339   133.5003 </r>
       <r>    -3.3655    14.0570   136.1541 </r>
       <r>    -3.1767     9.8686   138.0172 </r>
       <r>    -2.9879    23.5085   142.4555 </r>
       <r>    -2.7991    18.3849   145.9264 </r>
       <r>    -2.6103    17.3502   149.2020 </r>
       <r>    -2.4216    37.9194   156.3608 </r>
       <r>    -2.2328    30.0358   162.0314 </r>
       <r>    -2.0440    29.3549   167.5733 </r>
       <r>    -1.8552    31.3499   173.4919 </r>
       <r>    -1.6664    36.0060   180.2896 </r>
       <r>    -1.4776    33.2947   186.5753 </r>
       <r>    -1.2888    41.0264   194.3208 </r>
       <r>    -1.1000    43.1039   202.4585 </r>
       <r>    -0.9112    32.7527   208.6419 </r>
       <r>    -0.7224    28.4099   214.0055 </r>
       <r>    -0.5336    36.0803   220.8171 </r>
       <r>    -0.3448    30.6267   226.5992 </r>
       <r>    -0.1561    37.0481   233.5936 </r>
       <r>     0.0327    26.8465   238.6620 </r>
       <r>     0.2215    44.2028   247.0071 </r>
       <r>     0.4103    39.5837   254.4802 </r>
       <r>     0.5991    35.2835   261.1414 </r>
       <r>     0.7879    39.0850   268.5203 </r>
       <r>     0.9767    30.9628   274.3659 </r>
       <r>     1.1655    31.7319   280.3566 </r>
       <r>     1.3543    29.2433   285.8775 </r>
       <r>     1.5431    25.6729   290.7243 </r>
       <r>     1.7319    22.8749   295.0429 </r>
       <r>     1.9207    24.2873   299.6282 </r>
       <r>     2.1094     1.9696   300.0000 </r>
       <r>     2.2982     0.0000   300.0000 </r>
       <r>     2.4870     0.0000   300.0000 </r>
       <r>     2.6758     0.0000   300.0000 </r>
       <r>     2.8646     0.0000   300.0000 </r>
       <r>     3.0534     0.0000   300.0000 </r>
       <r>     3.2422     0.0000   300.0000 </r>
       <r>     3.4310     0.0000   300.0000 </r>
       <r>     3.6198     0.0003   300.0000 </r>
       <r>     3.8086     9.5729   301.8073 </r>
       <r>     3.9974    11.5917   303.9958 </r>
       <r>     4.1862    10.5105   305.9801 </r>
       <r>     4.3750    12.5448   308.3484 </r>
       <r>     4.5637    18.3733   311.8171 </r>
       <r>     4.7525    21.2781   315.8343 </r>
       <r>     4.9413    13.5030   318.3835 </r>
       <r>     5.1301    27.4842   323.5723 </r>
       <r>     5.3189    17.0549   326.7921 </r>
       <r>     5.5077    17.2139   330.0420 </r>
       <r>     5.6965    20.6061   333.9323 </r>
       <r>     5.8853     6.4005   335.1406 </r>
       <r>     6.0741    23.5836   339.5930 </r>
       <r>     6.2629     9.5701   341.3998 </r>
       <r>     6.4517    25.1036   346.1391 </r>
       <r>     6.6405    25.3192   350.9192 </r>
       <r>     6.8292    14.3852   353.6350 </r>
       <r>     7.0180    23.1869   358.0125 </r>
       <r>     7.2068    23.4549   362.4406 </r>
       <r>     7.3956    18.9493   366.0181 </r>
       <r>     7.5844    10.4944   367.9993 </r>
       <r>     7.7732     0.0036   368.0000 </r>
       <r>     7.9620     0.0000   368.0000 </r>
       <r>     8.1508     0.0000   368.0000 </r>
       <r>     8.3396     0.0000   368.0000 </r>
       <r>     8.5284     0.0000   368.0000 </r>
       <r>     8.7172     0.0000   368.0000 </r>
       <r>     8.9060     0.0000   368.0000 </r>
       <r>     9.0947     0.0000   368.0000 </r>
       <r>     9.2835     0.0000   368.0000 </r>
       <r>     9.4723     0.0000   368.0000 </r>
       <r>     9.6611     0.0000   368.0000 </r>
       <r>     9.8499     0.0000   368.0000 </r>
       <r>    10.0387     0.0000   368.0000 </r>
      </set>
     </set>
    </array>
   </total>
   <partial>
    <array>
     <dimension dim="1">gridpoints</dimension>
[...]
        <r>  0.0003  0.0002  0.0003  0.0003  0.0000  0.0000  0.0000  0.0000  0.0000 </r>
        <r>  0.0005  0.0007  0.0001  0.0018  0.0000  0.0000  0.0000  0.0000  0.0000 </r>
        <r>  0.0002  0.0008  0.0001  0.0012  0.0000  0.0000  0.0000  0.0000  0.0000 </r>
        <r>  0.0000  0.0002  0.0002  0.0007  0.0000  0.0000  0.0000  0.0000  0.0000 </r>
        <r>  0.0003  0.0003  0.0015  0.0005  0.0000  0.0000  0.0000  0.0000  0.0000 </r>
        <r>  0.0004  0.0003  0.0006  0.0015  0.0000  0.0000  0.0000  0.0000  0.0000 </r>
        <r>  0.0014  0.0009  0.0029  0.0002  0.0000  0.0000  0.0000  0.0000  0.0000 </r>
        <r>  0.0003  0.0003  0.0003  0.0009  0.0000  0.0000  0.0000  0.0000  0.0000 </r>
        <r>  0.0004  0.0046  0.0010  0.0021  0.0000  0.0000  0.0000  0.0000  0.0000 </r>
        <r>  0.0002  0.0010  0.0008  0.0001  0.0000  0.0000  0.0000  0.0000  0.0000 </r>
        <r>  0.0003  0.0001  0.0004  0.0001  0.0000  0.0000  0.0000  0.0000  0.0000 </r>
        <r>  0.0005  0.0005  0.0001  0.0004  0.0000  0.0000  0.0000  0.0000  0.0000 </r>
        <r>  0.0022  0.0018  0.0001  0.0001  0.0000  0.0000  0.0000  0.0000  0.0000 </r>
        <r>  0.0001  0.0029  0.0003  0.0009  0.0000  0.0000  0.0000  0.0000  0.0000 </r>
        <r>  0.0010  0.0005  0.0003  0.0015  0.0000  0.0000  0.0000  0.0000  0.0000 </r>
        <r>  0.0000  0.0001  0.0007  0.0005  0.0000  0.0000  0.0000  0.0000  0.0000 </r>
        <r>  0.0000  0.0003  0.0023  0.0006  0.0000  0.0000  0.0000  0.0000  0.0000 </r>
        <r>  0.0009  0.0010  0.0014  0.0001  0.0000  0.0000  0.0000  0.0000  0.0000 </r>
        <r>  0.0019  0.0006  0.0000  0.0004  0.0000  0.0000  0.0000  0.0000  0.0000 </r>
        <r>  0.0008  0.0004  0.0008  0.0008  0.0000  0.0000  0.0000  0.0000  0.0000 </r>
        <r>  0.0004  0.0005  0.0008  0.0003  0.0000  0.0000  0.0000  0.0000  0.0000 </r>
        <r>  0.0002  0.0003  0.0024  0.0009  0.0000  0.0000  0.0000  0.0000  0.0000 </r>
        <r>  0.0001  0.0000  0.0011  0.0004  0.0000  0.0000  0.0000  0.0000  0.0000 </r>
        <r>  0.0024  0.0000  0.0005  0.0001  0.0000  0.0000  0.0000  0.0000  0.0000 </r>
        <r>  0.0000  0.0007  0.0047  0.0009  0.0000  0.0000  0.0000  0.0000  0.0000 </r>
        <r>  0.0033  0.0009  0.0006  0.0008  0.0000  0.0000  0.0000  0.0000  0.0000 </r>
        <r>  0.0000  0.0008  0.0009  0.0026  0.0000  0.0000  0.0000  0.0000  0.0000 </r>
        <r>  0.0002  0.0004  0.0010  0.0008  0.0000  0.0000  0.0000  0.0000  0.0000 </r>
        <r>  0.0004  0.0038  0.0006  0.0002  0.0000  0.0000  0.0000  0.0000  0.0000 </r>
        <r>  0.0005  0.0002  0.0001  0.0005  0.0000  0.0000  0.0000  0.0000  0.0000 </r>
        <r>  0.0002  0.0003  0.0003  0.0008  0.0000  0.0000  0.0000  0.0000  0.0000 </r>
        <r>  0.0002  0.0013  0.0003  0.0015  0.0000  0.0000  0.0000  0.0000  0.0000 </r>
        <r>  0.0006  0.0004  0.0000  0.0005  0.0000  0.0000  0.0000  0.0000  0.0000 </r>
        <r>  0.0008  0.0004  0.0003  0.0001  0.0000  0.0000  0.0000  0.0000  0.0000 </r>
        <r>  0.0032  0.0003  0.0004  0.0003  0.0000  0.0000  0.0000  0.0000  0.0000 </r>
        <r>  0.0001  0.0001  0.0011  0.0007  0.0000  0.0000  0.0000  0.0000  0.0000 </r>
        <r>  0.0011  0.0002  0.0000  0.0012  0.0000  0.0000  0.0000  0.0000  0.0000 </r>
        <r>  0.0001  0.0003  0.0017  0.0020  0.0000  0.0000  0.0000  0.0000  0.0000 </r>
        <r>  0.0009  0.0010  0.0000  0.0004  0.0000  0.0000  0.0000  0.0000  0.0000 </r>
       </set>
       <set comment="band 183">
        <r>  0.0004  0.0004  0.0014  0.0001  0.0000  0.0000  0.0000  0.0000  0.0000 </r>
        <r>  0.0009  0.0000  0.0003  0.0003  0.0000  0.0000  0.0000  0.0000  0.0000 </r>
        <r>  0.0005  0.0004  0.0003  0.0010  0.0000  0.0000  0.0000  0.0000  0.0000 </r>
        <r>  0.0000  0.0015  0.0020  0.0000  0.0000  0.0000  0.0000  0.0000  0.0000 </r>
        <r>  0.0008  0.0003  0.0002  0.0005  0.0000  0.0000  0.0000  0.0000  0.0000 </r>
        <r>  0.0000  0.0002  0.0001  0.0008  0.0000  0.0000  0.0000  0.0000  0.0000 </r>
        <r>  0.0001  0.0001  0.0008  0.0008  0.0000  0.0000  0.0000  0.0000  0.0000 </r>
        <r>  0.0001  0.0005  0.0001  0.0011  0.0000  0.0000  0.0000  0.0000  0.0000 </r>
        <r>  0.0001  0.0008  0.0006  0.0003  0.0000  0.0000  0.0000  0.0000  0.0000 </r>
        <r>  0.0004  0.0021  0.0003  0.0003  0.0000  0.0000  0.0000  0.0000  0.0000 </r>
        <r>  0.0002  0.0001  0.0000  0.0001  0.0000  0.0000  0.0000  0.0000  0.0000 </r>
        <r>  0.0004  0.0004  0.0008  0.0017  0.0000  0.0000  0.0000  0.0000  0.0000 </r>
        <r>  0.0003  0.0006  0.0003  0.0002  0.0000  0.0000  0.0000  0.0000  0.0000 </r>
        <r>  0.0004  0.0005  0.0002  0.0001  0.0000  0.0000  0.0000  0.0000  0.0000 </r>
        <r>  0.0001  0.0010  0.0003  0.0009  0.0000  0.0000  0.0000  0.0000  0.0000 </r>
        <r>  0.0004  0.0016  0.0017  0.0004  0.0000  0.0000  0.0000  0.0000  0.0000 </r>
        <r>  0.0005  0.0012  0.0001  0.0005  0.0000  0.0000  0.0000  0.0000  0.0000 </r>
        <r>  0.0001  0.0000  0.0018  0.0003  0.0000  0.0000  0.0000  0.0000  0.0000 </r>
        <r>  0.0005  0.0010  0.0001  0.0003  0.0000  0.0000  0.0000  0.0000  0.0000 </r>
        <r>  0.0001  0.0001  0.0000  0.0009  0.0000  0.0000  0.0000  0.0000  0.0000 </r>
        <r>  0.0009  0.0003  0.0005  0.0005  0.0000  0.0000  0.0000  0.0000  0.0000 </r>
        <r>  0.0007  0.0008  0.0004  0.0004  0.0000  0.0000  0.0000  0.0000  0.0000 </r>
        <r>  0.0011  0.0006  0.0014  0.0001  0.0000  0.0000  0.0000  0.0000  0.0000 </r>
        <r>  0.0003  0.0021  0.0002  0.0007  0.0000  0.0000  0.0000  0.0000  0.0000 </r>
        <r>  0.0002  0.0005  0.0006  0.0009  0.0000  0.0000  0.0000  0.0000  0.0000 </r>
        <r>  0.0006  0.0005  0.0015  0.0000  0.0000  0.0000  0.0000  0.0000  0.0000 </r>
        <r>  0.0009  0.0009  0.0003  0.0010  0.0000  0.0000  0.0000  0.0000  0.0000 </r>
        <r>  0.0002  0.0003  0.0015  0.0011  0.0000  0.0000  0.0000  0.0000  0.0000 </r>
        <r>  0.0003  0.0004  0.0000  0.0005  0.0000  0.0000  0.0000  0.0000  0.0000 </r>
        <r>  0.0019  0.0010  0.0019  0.0006  0.0000  0.0000  0.0000  0.0000  0.0000 </r>
        <r>  0.0000  0.0003  0.0007  0.0006  0.0000  0.0000  0.0000  0.0000  0.0000 </r>
        <r>  0.0004  0.0003  0.0000  0.0017  0.0000  0.0000  0.0000  0.0000  0.0000 </r>
        <r>  0.0001  0.0030  0.0013  0.0002  0.0000  0.0000  0.0000  0.0000  0.0000 </r>
        <r>  0.0012  0.0033  0.0004  0.0004  0.0000  0.0000  0.0000  0.0000  0.0000 </r>
        <r>  0.0002  0.0004  0.0029  0.0002  0.0000  0.0000  0.0000  0.0000  0.0000 </r>
        <r>  0.0002  0.0005  0.0006  0.0002  0.0000  0.0000  0.0000  0.0000  0.0000 </r>
        <r>  0.0004  0.0001  0.0003  0.0023  0.0000  0.0000  0.0000  0.0000  0.0000 </r>
        <r>  0.0000  0.0009  0.0005  0.0007  0.0000  0.0000  0.0000  0.0000  0.0000 </r>
        <r>  0.0002  0.0011  0.0017  0.0002  0.0000  0.0000  0.0000  0.0000  0.0000 </r>
        <r>  0.0010  0.0002  0.0005  0.0011  0.0000  0.0000  0.0000  0.0000  0.0000 </r>
        <r>  0.0011  0.0002  0.0003  0.0001  0.0000  0.0000  0.0000  0.0000  0.0000 </r>
        <r>  0.0000  0.0012  0.0019  0.0003  0.0000  0.0000  0.0000  0.0000  0.0000 </r>
        <r>  0.0002  0.0010  0.0017  0.0007  0.0000  0.0000  0.0000  0.0000  0.0000 </r>
        <r>  0.0003  0.0015  0.0003  0.0005  0.0000  0.0000  0.0000  0.0000  0.0000 </r>
        <r>  0.0001  0.0005  0.0005  0.0028  0.0000  0.0000  0.0000  0.0000  0.0000 </r>
        <r>  0.0010  0.0012  0.0028  0.0006  0.0000  0.0000  0.0000  0.0000  0.0000 </r>
        <r>  0.0008  0.0053  0.0014  0.0007  0.0000  0.0000  0.0000  0.0000  0.0000 </r>
        <r>  0.0002  0.0007  0.0009  0.0008  0.0000  0.0000  0.0000  0.0000  0.0000 </r>
        <r>  0.0005  0.0001  0.0028  0.0001  0.0000  0.0000  0.0000  0.0000  0.0000 </r>
        <r>  0.0002  0.0007  0.0009  0.0001  0.0000  0.0000  0.0000  0.0000  0.0000 </r>
        <r>  0.0062  0.0001  0.0007  0.0026  0.0000  0.0000  0.0000  0.0000  0.0000 </r>
        <r>  0.0011  0.0002  0.0015  0.0004  0.0000  0.0000  0.0000  0.0000  0.0000 </r>
        <r>  0.0002  0.0005  0.0028  0.0003  0.0000  0.0000  0.0000  0.0000  0.0000 </r>
        <r>  0.0013  0.0007  0.0001  0.0005  0.0000  0.0000  0.0000  0.0000  0.0000 </r>
        <r>  0.0014  0.0021  0.0020  0.0008  0.0000  0.0000  0.0000  0.0000  0.0000 </r>
        <r>  0.0001  0.0018  0.0007  0.0003  0.0000  0.0000  0.0000  0.0000  0.0000 </r>
        <r>  0.0001  0.0006  0.0005  0.0004  0.0000  0.0000  0.0000  0.0000  0.0000 </r>
        <r>  0.0006  0.0001  0.0014  0.0003  0.0000  0.0000  0.0000  0.0000  0.0000 </r>
        <r>  0.0003  0.0004  0.0000  0.0001  0.0000  0.0000  0.0000  0.0000  0.0000 </r>
        <r>  0.0002  0.0001  0.0009  0.0000  0.0000  0.0000  0.0000  0.0000  0.0000 </r>
        <r>  0.0030  0.0001  0.0002  0.0004  0.0000  0.0000  0.0000  0.0000  0.0000 </r>
        <r>  0.0022  0.0001  0.0007  0.0007  0.0000  0.0000  0.0000  0.0000  0.0000 </r>
        <r>  0.0014  0.0010  0.0005  0.0001  0.0000  0.0000  0.0000  0.0000  0.0000 </r>
        <r>  0.0006  0.0003  0.0013  0.0034  0.0000  0.0000  0.0000  0.0000  0.0000 </r>
        <r>  0.0023  0.0002  0.0005  0.0004  0.0000  0.0000  0.0000  0.0000  0.0000 </r>
       </set>
       <set comment="band 184">
        <r>  0.0005  0.0024  0.0008  0.0010  0.0000  0.0000  0.0000  0.0000  0.0000 </r>
        <r>  0.0017  0.0000  0.0008  0.0000  0.0000  0.0000  0.0000  0.0000  0.0000 </r>
        <r>  0.0001  0.0012  0.0016  0.0003  0.0000  0.0000  0.0000  0.0000  0.0000 </r>
        <r>  0.0001  0.0010  0.0002  0.0002  0.0000  0.0000  0.0000  0.0000  0.0000 </r>
        <r>  0.0003  0.0009  0.0000  0.0001  0.0000  0.0000  0.0000  0.0000  0.0000 </r>
        <r>  0.0003  0.0002  0.0001  0.0002  0.0000  0.0000  0.0000  0.0000  0.0000 </r>
        <r>  0.0004  0.0005  0.0010  0.0001  0.0000  0.0000  0.0000  0.0000  0.0000 </r>
        <r>  0.0001  0.0003  0.0003  0.0029  0.0000  0.0000  0.0000  0.0000  0.0000 </r>
        <r>  0.0007  0.0001  0.0012  0.0000  0.0000  0.0000  0.0000  0.0000  0.0000 </r>
        <r>  0.0009  0.0002  0.0000  0.0002  0.0000  0.0000  0.0000  0.0000  0.0000 </r>
        <r>  0.0002  0.0005  0.0005  0.0002  0.0000  0.0000  0.0000  0.0000  0.0000 </r>
        <r>  0.0003  0.0002  0.0007  0.0015  0.0000  0.0000  0.0000  0.0000  0.0000 </r>
        <r>  0.0000  0.0009  0.0003  0.0008  0.0000  0.0000  0.0000  0.0000  0.0000 </r>
        <r>  0.0004  0.0011  0.0008  0.0002  0.0000  0.0000  0.0000  0.0000  0.0000 </r>
        <r>  0.0002  0.0003  0.0011  0.0004  0.0000  0.0000  0.0000  0.0000  0.0000 </r>
        <r>  0.0014  0.0045  0.0005  0.0034  0.0000  0.0000  0.0000  0.0000  0.0000 </r>
        <r>  0.0004  0.0005  0.0015  0.0009  0.0000  0.0000  0.0000  0.0000  0.0000 </r>
        <r>  0.0001  0.0003  0.0017  0.0004  0.0000  0.0000  0.0000  0.0000  0.0000 </r>
        <r>  0.0016  0.0003  0.0006  0.0005  0.0000  0.0000  0.0000  0.0000  0.0000 </r>
        <r>  0.0004  0.0006  0.0000  0.0007  0.0000  0.0000  0.0000  0.0000  0.0000 </r>
        <r>  0.0004  0.0007  0.0002  0.0016  0.0000  0.0000  0.0000  0.0000  0.0000 </r>
        <r>  0.0009  0.0002  0.0018  0.0009  0.0000  0.0000  0.0000  0.0000  0.0000 </r>
        <r>  0.0002  0.0004  0.0001  0.0002  0.0000  0.0000  0.0000  0.0000  0.0000 </r>
        <r>  0.0004  0.0001  0.0007  0.0003  0.0000  0.0000  0.0000  0.0000  0.0000 </r>
        <r>  0.0000  0.0007  0.0003  0.0000  0.0000  0.0000  0.0000  0.0000  0.0000 </r>
        <r>  0.0001  0.0025  0.0002  0.0000  0.0000  0.0000  0.0000  0.0000  0.0000 </r>
        <r>  0.0001  0.0008  0.0020  0.0002  0.0000  0.0000  0.0000  0.0000  0.0000 </r>
        <r>  0.0001  0.0016  0.0000  0.0016  0.0000  0.0000  0.0000  0.0000  0.0000 </r>
        <r>  0.0004  0.0004  0.0004  0.0013  0.0000  0.0000  0.0000  0.0000  0.0000 </r>
        <r>  0.0019  0.0000  0.0009  0.0005  0.0000  0.0000  0.0000  0.0000  0.0000 </r>
        <r>  0.0009  0.0001  0.0000  0.0000  0.0000  0.0000  0.0000  0.0000  0.0000 </r>
        <r>  0.0005  0.0003  0.0005  0.0006  0.0000  0.0000  0.0000  0.0000  0.0000 </r>
        <r>  0.0012  0.0005  0.0019  0.0000  0.0000  0.0000  0.0000  0.0000  0.0000 </r>
        <r>  0.0003  0.0031  0.0007  0.0001  0.0000  0.0000  0.0000  0.0000  0.0000 </r>
        <r>  0.0002  0.0000  0.0008  0.0003  0.0000  0.0000  0.0000  0.0000  0.0000 </r>
        <r>  0.0006  0.0012  0.0004  0.0014  0.0000  0.0000  0.0000  0.0000  0.0000 </r>
        <r>  0.0005  0.0003  0.0019  0.0004  0.0000  0.0000  0.0000  0.0000  0.0000 </r>
        <r>  0.0007  0.0001  0.0004  0.0002  0.0000  0.0000  0.0000  0.0000  0.0000 </r>
        <r>  0.0001  0.0022  0.0001  0.0005  0.0000  0.0000  0.0000  0.0000  0.0000 </r>
        <r>  0.0004  0.0004  0.0006  0.0000  0.0000  0.0000  0.0000  0.0000  0.0000 </r>
        <r>  0.0000  0.0001  0.0002  0.0000  0.0000  0.0000  0.0000  0.0000  0.0000 </r>
        <r>  0.0000  0.0008  0.0006  0.0001  0.0000  0.0000  0.0000  0.0000  0.0000 </r>
        <r>  0.0001  0.0021  0.0012  0.0007  0.0000  0.0000  0.0000  0.0000  0.0000 </r>
        <r>  0.0001  0.0021  0.0005  0.0001  0.0000  0.0000  0.0000  0.0000  0.0000 </r>
        <r>  0.0005  0.0028  0.0005  0.0008  0.0000  0.0000  0.0000  0.0000  0.0000 </r>
        <r>  0.0007  0.0000  0.0019  0.0001  0.0000  0.0000  0.0000  0.0000  0.0000 </r>
        <r>  0.0013  0.0034  0.0001  0.0015  0.0000  0.0000  0.0000  0.0000  0.0000 </r>
        <r>  0.0014  0.0013  0.0006  0.0014  0.0000  0.0000  0.0000  0.0000  0.0000 </r>
        <r>  0.0010  0.0000  0.0003  0.0004  0.0000  0.0000  0.0000  0.0000  0.0000 </r>
        <r>  0.0003  0.0001  0.0000  0.0009  0.0000  0.0000  0.0000  0.0000  0.0000 </r>
        <r>  0.0020  0.0006  0.0003  0.0011  0.0000  0.0000  0.0000  0.0000  0.0000 </r>
        <r>  0.0004  0.0003  0.0013  0.0007  0.0000  0.0000  0.0000  0.0000  0.0000 </r>
        <r>  0.0002  0.0005  0.0023  0.0019  0.0000  0.0000  0.0000  0.0000  0.0000 </r>
        <r>  0.0055  0.0003  0.0009  0.0002  0.0000  0.0000  0.0000  0.0000  0.0000 </r>
        <r>  0.0012  0.0000  0.0023  0.0002  0.0000  0.0000  0.0000  0.0000  0.0000 </r>
        <r>  0.0002  0.0024  0.0011  0.0018  0.0000  0.0000  0.0000  0.0000  0.0000 </r>
        <r>  0.0012  0.0010  0.0011  0.0015  0.0000  0.0000  0.0000  0.0000  0.0000 </r>
        <r>  0.0008  0.0003  0.0001  0.0001  0.0000  0.0000  0.0000  0.0000  0.0000 </r>
        <r>  0.0010  0.0008  0.0013  0.0009  0.0000  0.0000  0.0000  0.0000  0.0000 </r>
        <r>  0.0001  0.0003  0.0047  0.0003  0.0000  0.0000  0.0000  0.0000  0.0000 </r>
        <r>  0.0008  0.0001  0.0033  0.0004  0.0000  0.0000  0.0000  0.0000  0.0000 </r>
        <r>  0.0005  0.0002  0.0013  0.0009  0.0000  0.0000  0.0000  0.0000  0.0000 </r>
        <r>  0.0007  0.0003  0.0002  0.0014  0.0000  0.0000  0.0000  0.0000  0.0000 </r>
        <r>  0.0002  0.0000  0.0003  0.0035  0.0000  0.0000  0.0000  0.0000  0.0000 </r>
        <r>  0.0001  0.0008  0.0004  0.0008  0.0000  0.0000  0.0000  0.0000  0.0000 </r>
       </set>
      </set>
     </set>
    </set>
   </array>
  </projected>
 </calculation>
 <structure name="finalpos" >
  <crystal>
   <varray name="basis" >
    <v>      10.25000000       0.00000000       0.00000000 </v>
    <v>       0.00000000      10.25000000       0.00000000 </v>
    <v>       0.00000000       0.00000000      12.35000000 </v>
   </varray>
   <i name="volume">   1297.52187500 </i>
   <varray name="rec_basis" >
    <v>       0.09756098       0.00000000       0.00000000 </v>
    <v>       0.00000000       0.09756098       0.00000000 </v>
    <v>       0.00000000       0.00000000       0.08097166 </v>
   </varray>
  </crystal>
  <varray name="positions" >
   <v>       0.61728585       0.89926829       0.99857490 </v>
   <v>       0.73694732       0.56669171       0.61228826 </v>
   <v>       0.23767122       0.17501951       0.03302834 </v>
   <v>       0.14770927       0.74004488       0.20695142 </v>
   <v>       0.30035122       0.21346537       0.32137004 </v>
   <v>       0.19593951       0.04620595       0.66205587 </v>
   <v>       0.73404195       0.55664390       0.21535628 </v>
   <v>       0.51384390       0.06584956       0.30101943 </v>
   <v>       0.98110244       0.93692390       0.57720972 </v>
   <v>       0.94466341       0.40800683       0.22506478 </v>
   <v>       0.42815415       0.96372683       0.52759433 </v>
   <v>       0.88766537       0.58370439       0.00557081 </v>
   <v>       0.02381112       0.36629756       0.73273684 </v>
   <v>       0.29703415       0.52344098       0.59692794 </v>
   <v>       0.62825463       0.22432098       0.98604049 </v>
   <v>       0.86164000       0.18555902       0.82357085 </v>
   <v>       0.62765659       0.53647024       0.98651012 </v>
   <v>       0.47464683       0.40304878       0.43191741 </v>
   <v>       0.46932976       0.66555707       0.14348988 </v>
   <v>       0.20815610       0.75524195       0.86757085 </v>
   <v>       0.70289951       0.23682439       0.21813198 </v>
   <v>       0.96515220       0.69801659       0.73280405 </v>
   <v>       0.01223571       0.37254439       0.45972632 </v>
   <v>       0.91093171       0.20106049       0.04223368 </v>
   <v>       0.72176488       0.13802146       0.44725344 </v>
   <v>       0.54102341       0.63165659       0.77410607 </v>
   <v>       0.62583512       0.81676293       0.25198947 </v>
   <v>       0.69730732       0.02263327       0.77294089 </v>
   <v>       0.60238537       0.27702732       0.61938462 </v>
   <v>       0.87212293       0.86903902       0.04343320 </v>
   <v>       0.28701463       0.60822439       0.33739676 </v>
   <v>       0.28471220       0.46430927       0.88403239 </v>
   <v>       0.09501951       0.43227415       0.97684211 </v>
   <v>       0.19796390       0.71064780       0.48829717 </v>
   <v>       0.99190244       0.62067220       0.45381457 </v>
   <v>       0.36972488       0.10392683       0.80675061 </v>
   <v>       0.38484878       0.88637268       0.21774413 </v>
   <v>       0.43324000       0.91012683       0.82772470 </v>
   <v>       0.19800390       0.90862244       0.47786316 </v>
   <v>       0.86641951       0.73687122       0.54661215 </v>
   <v>       0.02622137       0.19740976       0.59277085 </v>
   <v>       0.49438634       0.61642146       0.33687206 </v>
   <v>       0.39798244       0.61540195       0.94846154 </v>
   <v>       0.17512195       0.39060195       0.13714656 </v>
   <v>       0.18088488       0.55500488       0.75117004 </v>
   <v>       0.77597463       0.37791707       0.08219919 </v>
   <v>       0.76989756       0.57340098       0.81825101 </v>
   <v>       0.07878985       0.24431707       0.90414575 </v>
   <v>       0.94895902       0.65387024       0.29029150 </v>
   <v>       0.09342332       0.21386829       0.18966316 </v>
   <v>       0.78359512       0.04382146       0.95106073 </v>
   <v>       0.83549659       0.12405659       0.61503158 </v>
   <v>       0.48605171       0.17282634       0.46324291 </v>
   <v>       0.68723122       0.72244780       0.08743563 </v>
   <v>       0.80211610       0.39973073       0.73818462 </v>
   <v>       0.46108683       0.18844390       0.13979433 </v>
   <v>       0.53640976       0.21832780       0.80276113 </v>
   <v>       0.54270634       0.85408488       0.68963725 </v>
   <v>       0.41124000       0.00744147       0.08076348 </v>
   <v>       0.24436195       0.42751415       0.41211012 </v>
   <v>       0.52292195       0.49862439       0.60979919 </v>
   <v>       0.79341073       0.34696780       0.37573603 </v>
   <v>       0.07352644       0.90025561       0.76138057 </v>
   <v>       0.74403707       0.01861902       0.28581377 </v>
   <v>       0.06799717       0.75996293       0.02861798 </v>
  </varray>
 </structure>
</modeling>
