LPSC                                    
           1
    10.250000    0.000000    0.000000
     0.000000   10.250000    0.000000
     0.000000    0.000000   12.350000
   Li   P    S    Cl
  30   5  25   5
Direct configuration=     1
   0.61728585  0.89926829  0.99857490
   0.73694732  0.56669171  0.61228826
   0.23767122  0.17501951  0.03302834
   0.14770927  0.74004488  0.20695142
   0.30035122  0.21346537  0.32137004
   0.19593951  0.04620595  0.66205587
   0.73404195  0.55664390  0.21535628
   0.51384390  0.06584956  0.30101943
   0.98110244  0.93692390  0.57720972
   0.94466341  0.40800683  0.22506478
   0.42815415  0.96372683  0.52759433
   0.88766537  0.58370439  0.00557081
   0.02381112  0.36629756  0.73273684
   0.29703415  0.52344098  0.59692794
   0.62825463  0.22432098  0.98604049
   0.86164000  0.18555902  0.82357085
   0.62765659  0.53647024  0.98651012
   0.47464683  0.40304878  0.43191741
   0.46932976  0.66555707  0.14348988
   0.20815610  0.75524195  0.86757085
   0.70289951  0.23682439  0.21813198
   0.96515220  0.69801659  0.73280405
   0.01223571  0.37254439  0.45972632
   0.91093171  0.20106049  0.04223368
   0.72176488  0.13802146  0.44725344
   0.54102341  0.63165659  0.77410607
   0.62583512  0.81676293  0.25198947
   0.69730732  0.02263327  0.77294089
   0.60238537  0.27702732  0.61938462
   0.87212293  0.86903902  0.04343320
   0.28701463  0.60822439  0.33739676
   0.28471220  0.46430927  0.88403239
   0.09501951  0.43227415  0.97684211
   0.19796390  0.71064780  0.48829717
   0.99190244  0.62067220  0.45381457
   0.36972488  0.10392683  0.80675061
   0.38484878  0.88637268  0.21774413
   0.43324000  0.91012683  0.82772470
   0.19800390  0.90862244  0.47786316
   0.86641951  0.73687122  0.54661215
   0.02622137  0.19740976  0.59277085
   0.49438634  0.61642146  0.33687206
   0.39798244  0.61540195  0.94846154
   0.17512195  0.39060195  0.13714656
   0.18088488  0.55500488  0.75117004
   0.77597463  0.37791707  0.08219919
   0.76989756  0.57340098  0.81825101
   0.07878985  0.24431707  0.90414575
   0.94895902  0.65387024  0.29029150
   0.09342332  0.21386829  0.18966316
   0.78359512  0.04382146  0.95106073
   0.83549659  0.12405659  0.61503158
   0.48605171  0.17282634  0.46324291
   0.68723122  0.72244780  0.08743563
   0.80211610  0.39973073  0.73818462
   0.46108683  0.18844390  0.13979433
   0.53640976  0.21832780  0.80276113
   0.54270634  0.85408488  0.68963725
   0.41124000  0.00744147  0.08076348
   0.24436195  0.42751415  0.41211012
   0.52292195  0.49862439  0.60979919
   0.79341073  0.34696780  0.37573603
   0.07352644  0.90025561  0.76138057
   0.74403707  0.01861902  0.28581377
   0.06799717  0.75996293  0.02861798
