 vasp.5.4.4.18Apr17-6-g9f103f2a35 (build Jan 22 2020 12:49:05) complex          
  
 executed on Bebop BDW IPS19.0.5  date 2022.10.04  12:10:52
 running on   64 total cores
 distrk:  each k-point on   64 cores,    1 groups
 distr:  one band on NCORES_PER_BAND=   8 cores,    8 groups


--------------------------------------------------------------------------------------------------------


 INCAR:
 POTCAR:    PAW_PBE Li_sv 10Sep2004               
 POTCAR:    PAW_PBE P 06Sep2000                   
 POTCAR:    PAW_PBE S 06Sep2000                   
 POTCAR:    PAW_PBE Cl 06Sep2000                  
 POTCAR:    PAW_PBE Li_sv 10Sep2004               
   VRHFIN =Li: 1s2s2p                                                           
   LEXCH  = PE                                                                  
   EATOM  =   202.7858 eV,   14.9043 Ry                                         
                                                                                
   TITEL  = PAW_PBE Li_sv 10Sep2004                                             
   LULTRA =        F    use ultrasoft PP ?                                      
   IUNSCR =        0    unscreen: 0-lin 1-nonlin 2-no                           
   RPACOR =    0.000    partial core radius                                     
   POMASS =    7.010; ZVAL   =    3.000    mass and valenz                      
   RCORE  =    1.700    outmost cutoff radius                                   
   RWIGS  =    2.050; RWIGS  =    1.085    wigner-seitz radius (au A)           
   ENMAX  =  499.034; ENMIN  =  374.276 eV                                      
   ICORE  =        2    local potential                                         
   LCOR   =        T    correct aug charges                                     
   LPAW   =        T    paw PP                                                  
   EAUG   =  628.945                                                            
   RMAX   =    1.732    core radius for proj-oper                               
   RAUG   =    1.300    factor for augmentation sphere                          
   RDEP   =    1.728    radius for radial grids                                 
   RDEPT  =    1.329    core radius for aug-charge                              
                                                                                
   Atomic configuration                                                         
    4 entries                                                                   
     n  l   j            E        occ.                                          
     1  0  0.50       -51.8549   2.0000                                         
     2  0  0.50        -2.8742   1.0000                                         
     2  1  0.50        -1.3606   0.0000                                         
     3  2  1.50        -1.3606   0.0000                                         
   Description                                                                  
     l       E           TYP  RCUT    TYP  RCUT                                 
     0    -51.8548813     23  1.400                                             
     0     -2.8742052     23  1.700                                             
     1     -1.3605826     23  1.400                                             
     2     -1.3605826     23  1.400                                             
  local pseudopotential read in
  atomic valenz-charges read in
  non local Contribution for L=           0  read in
    real space projection operators read in
  non local Contribution for L=           0  read in
    real space projection operators read in
  non local Contribution for L=           1  read in
    real space projection operators read in
    PAW grid and wavefunctions read in
 
   number of l-projection  operators is LMAX  =           3
   number of lm-projection operators is LMMAX =           5
 
 POTCAR:    PAW_PBE P 06Sep2000                   
   VRHFIN =P : s2p3                                                             
   LEXCH  = PE                                                                  
   EATOM  =   176.0430 eV,   12.9388 Ry                                         
                                                                                
   TITEL  = PAW_PBE P 06Sep2000                                                 
   LULTRA =        F    use ultrasoft PP ?                                      
   IUNSCR =        1    unscreen: 0-lin 1-nonlin 2-no                           
   RPACOR =    1.500    partial core radius                                     
   POMASS =   30.974; ZVAL   =    5.000    mass and valenz                      
   RCORE  =    1.900    outmost cutoff radius                                   
   RWIGS  =    2.330; RWIGS  =    1.233    wigner-seitz radius (au A)           
   ENMAX  =  255.040; ENMIN  =  191.280 eV                                      
   ICORE  =        2    local potential                                         
   LCOR   =        T    correct aug charges                                     
   LPAW   =        T    paw PP                                                  
   EAUG   =  342.924                                                            
   DEXC   =    0.000                                                            
   RMAX   =    1.935    core radius for proj-oper                               
   RAUG   =    1.300    factor for augmentation sphere                          
   RDEP   =    1.931    radius for radial grids                                 
   RDEPT  =    1.794    core radius for aug-charge                              
                                                                                
   Atomic configuration                                                         
    6 entries                                                                   
     n  l   j            E        occ.                                          
     1  0  0.50     -2084.0982   2.0000                                         
     2  0  0.50      -173.9859   2.0000                                         
     2  1  1.50      -124.4865   6.0000                                         
     3  0  0.50       -13.9692   2.0000                                         
     3  1  0.50        -5.5067   3.0000                                         
     3  2  1.50        -5.4423   0.0000                                         
   Description                                                                  
     l       E           TYP  RCUT    TYP  RCUT                                 
     0    -13.9691527     23  1.900                                             
     0    -11.7794650     23  1.900                                             
     1     -5.5066937     23  1.900                                             
     1     -0.2556953     23  1.900                                             
     2     -5.4423304     23  1.900                                             
  local pseudopotential read in
  partial core-charges read in
  partial kinetic energy density read in
  atomic valenz-charges read in
  non local Contribution for L=           0  read in
    real space projection operators read in
  non local Contribution for L=           0  read in
    real space projection operators read in
  non local Contribution for L=           1  read in
    real space projection operators read in
  non local Contribution for L=           1  read in
    real space projection operators read in
    PAW grid and wavefunctions read in
 
   number of l-projection  operators is LMAX  =           4
   number of lm-projection operators is LMMAX =           8
 
 POTCAR:    PAW_PBE S 06Sep2000                   
   VRHFIN =S : s2p4                                                             
   LEXCH  = PE                                                                  
   EATOM  =   276.8230 eV,   20.3459 Ry                                         
                                                                                
   TITEL  = PAW_PBE S 06Sep2000                                                 
   LULTRA =        F    use ultrasoft PP ?                                      
   IUNSCR =        1    unscreen: 0-lin 1-nonlin 2-no                           
   RPACOR =    1.500    partial core radius                                     
   POMASS =   32.066; ZVAL   =    6.000    mass and valenz                      
   RCORE  =    1.900    outmost cutoff radius                                   
   RWIGS  =    2.200; RWIGS  =    1.164    wigner-seitz radius (au A)           
   ENMAX  =  258.689; ENMIN  =  194.016 eV                                      
   ICORE  =        2    local potential                                         
   LCOR   =        T    correct aug charges                                     
   LPAW   =        T    paw PP                                                  
   EAUG   =  335.092                                                            
   DEXC   =    0.000                                                            
   RMAX   =    1.942    core radius for proj-oper                               
   RAUG   =    1.300    factor for augmentation sphere                          
   RDEP   =    1.954    radius for radial grids                                 
   RDEPT  =    1.744    core radius for aug-charge                              
                                                                                
   Atomic configuration                                                         
    6 entries                                                                   
     n  l   j            E        occ.                                          
     1  0  0.50     -2405.8406   2.0000                                         
     2  0  0.50      -211.7007   2.0000                                         
     2  1  1.50      -156.4958   6.0000                                         
     3  0  0.50       -17.2562   2.0000                                         
     3  1  0.50        -7.0085   4.0000                                         
     3  2  1.50        -6.8029   0.0000                                         
   Description                                                                  
     l       E           TYP  RCUT    TYP  RCUT                                 
     0    -17.2561641     23  1.900                                             
     0    -15.8743224     23  1.900                                             
     1     -7.0085400     23  1.900                                             
     1     -2.7779785     23  1.900                                             
     2     -6.8029130     23  1.900                                             
  local pseudopotential read in
  partial core-charges read in
  partial kinetic energy density read in
  atomic valenz-charges read in
  non local Contribution for L=           0  read in
    real space projection operators read in
  non local Contribution for L=           0  read in
    real space projection operators read in
  non local Contribution for L=           1  read in
    real space projection operators read in
  non local Contribution for L=           1  read in
    real space projection operators read in
    PAW grid and wavefunctions read in
 
   number of l-projection  operators is LMAX  =           4
   number of lm-projection operators is LMMAX =           8
 
 POTCAR:    PAW_PBE Cl 06Sep2000                  
   VRHFIN =Cl: s2p5                                                             
   LEXCH  = PE                                                                  
   EATOM  =   409.7259 eV,   30.1140 Ry                                         
                                                                                
   TITEL  = PAW_PBE Cl 06Sep2000                                                
   LULTRA =        F    use ultrasoft PP ?                                      
   IUNSCR =        1    unscreen: 0-lin 1-nonlin 2-no                           
   RPACOR =    1.500    partial core radius                                     
   POMASS =   35.453; ZVAL   =    7.000    mass and valenz                      
   RCORE  =    1.900    outmost cutoff radius                                   
   RWIGS  =    2.100; RWIGS  =    1.111    wigner-seitz radius (au A)           
   ENMAX  =  262.472; ENMIN  =  196.854 eV                                      
   ICORE  =        2    local potential                                         
   LCOR   =        T    correct aug charges                                     
   LPAW   =        T    paw PP                                                  
   EAUG   =  356.192                                                            
   DEXC   =    0.000                                                            
   RMAX   =    1.945    core radius for proj-oper                               
   RAUG   =    1.300    factor for augmentation sphere                          
   RDEP   =    2.020    radius for radial grids                                 
   RDEPT  =    1.678    core radius for aug-charge                              
                                                                                
   Atomic configuration                                                         
    6 entries                                                                   
     n  l   j            E        occ.                                          
     1  0  0.50     -2751.1850   2.0000                                         
     2  0  0.50      -252.6861   2.0000                                         
     2  1  1.50      -191.6157   6.0000                                         
     3  0  0.50       -20.6916   2.0000                                         
     3  1  0.50        -8.5949   5.0000                                         
     3  2  1.50        -8.1635   0.0000                                         
   Description                                                                  
     l       E           TYP  RCUT    TYP  RCUT                                 
     0    -20.6915656     23  1.900                                             
     0    -22.0521482     23  1.900                                             
     1     -8.5948577     23  1.900                                             
     1     -5.3847331     23  1.900                                             
     2     -8.1634956     23  1.900                                             
  local pseudopotential read in
  partial core-charges read in
  partial kinetic energy density read in
  atomic valenz-charges read in
  non local Contribution for L=           0  read in
    real space projection operators read in
  non local Contribution for L=           0  read in
    real space projection operators read in
  non local Contribution for L=           1  read in
    real space projection operators read in
  non local Contribution for L=           1  read in
    real space projection operators read in
    PAW grid and wavefunctions read in
 
   number of l-projection  operators is LMAX  =           4
   number of lm-projection operators is LMMAX =           8
 

 ----------------------------------------------------------------------------- 
|                                                                             |
|  ADVICE TO THIS USER RUNNING 'VASP/VAMP'   (HEAR YOUR MASTER'S VOICE ...):  |
|                                                                             |
|      You have a (more or less) 'large supercell' and for larger cells       |
|      it might be more efficient to use real space projection opertators     |
|      So try LREAL= Auto  in the INCAR   file.                               |
|      Mind:          For very  accurate calculation you might also keep the  |
|      reciprocal projection scheme          (i.e. LREAL=.FALSE.)             |
|                                                                             |
 ----------------------------------------------------------------------------- 

  PAW_PBE Li_sv 10Sep2004               :
 energy of atom  1       EATOM= -202.7858
 kinetic energy error for atom=    0.0143 (will be added to EATOM!!)
  PAW_PBE P 06Sep2000                   :
 energy of atom  2       EATOM= -176.0430
 kinetic energy error for atom=    0.0013 (will be added to EATOM!!)
  PAW_PBE S 06Sep2000                   :
 energy of atom  3       EATOM= -276.8230
 kinetic energy error for atom=    0.0020 (will be added to EATOM!!)
  PAW_PBE Cl 06Sep2000                  :
 energy of atom  4       EATOM= -409.7259
 kinetic energy error for atom=    0.0030 (will be added to EATOM!!)
 
 
 POSCAR: New POSCAR file                         
  positions in cartesian coordinates
  No initial velocities read in
 exchange correlation table for  LEXCH =        8
   RHO(1)=    0.500       N(1)  =     2000
   RHO(2)=  100.500       N(2)  =     4000
 


--------------------------------------------------------------------------------------------------------


 ion  position               nearest neighbor table
   1  0.749  0.839  0.160- 153 2.14 156 2.36 107 2.64 118 2.69
   2  0.559  0.679  0.041- 177 2.17 158 2.65
   3  0.670  0.650  0.196- 118 2.26 177 2.42 130 2.64
   4  0.813  0.924  0.988- 151 1.68 106 2.57
   5  0.569  0.793  0.270- 191 2.02 177 2.40  83 2.54 171 2.55
   6  0.896  0.767  0.909- 204 2.47 151 2.54
   7  0.236  0.022  0.036- 178 2.21 198 2.63
   8  0.230  0.863  0.300- 202 2.54  12 2.60
   9  0.085  0.966  0.363- 202 2.27 128 2.68
  10  0.218  0.721  0.051- 159 2.25 201 2.28 170 2.41
  11  0.100  0.697  0.902- 180 2.37 144 2.61
  12  0.312  0.837  0.434- 127 2.35 125 2.53 171 2.55   8 2.60 172 2.70
  13  0.330  0.515  0.577- 142 2.20 208 2.54
  14  0.505  0.803  0.515- 120 2.26 114 2.69
  15  0.697  0.858  0.771- 150 2.37 115 2.45 116 2.57 151 2.63
  16  0.376  0.629  0.441- 120 2.29 172 2.58 157 2.64
  17  0.720  0.525  0.744- 174 2.34 117 2.63 176 2.63
  18  0.179  0.733  0.624- 144 2.30 127 2.65 141 2.67
  19  0.015  0.913  0.864- 203 2.11
  20  0.943  0.479  0.003- 186 2.20 205 2.25 180 2.56
  21  0.172  0.486  0.690- 181 2.25 208 2.39 143 2.58
  22  0.543  0.920  0.861- 196 2.30 193 2.47
  23  0.014  0.584  0.738- 135 2.20 134 2.49  26 2.53
  24  0.869  0.620  0.834- 135 2.32 180 2.34
  25  0.374  0.480  0.886- 160 2.41 181 2.43 158 2.50 112 2.65
  26  0.093  0.513  0.852- 205 2.17 134 2.20 180 2.49  23 2.53 181 2.69
  27  0.273  0.605  0.845- 197 2.25 159 2.27 181 2.28 144 2.66
  28  0.412  0.699  0.911- 197 2.37 158 2.44 196 2.62
  29  0.051  0.306  0.708- 189 2.20 134 2.40 200 2.46
  30  0.525  0.630  0.716- 137 2.23 197 2.36 179 2.39 176 2.66
  31  0.250  0.251  0.006- 198 2.12 182 2.51
  32  0.367  0.153  0.130- 194 1.99 182 2.26  33 2.45  99 2.78
  33  0.472  0.073  0.055- 182 2.39 194 2.41 193 2.41  32 2.45
  34  0.445  0.317  0.035- 160 2.39 182 2.39 121 2.67
  35  0.645  0.387  0.177- 165 2.36 190 2.36
  36  0.098  0.155  0.113- 198 2.27 123 2.38
  37  0.791  0.094  0.494- 113 2.41 199 2.52
  38  0.823  0.310  0.685- 183 2.31 102 2.32 199 2.61
  39  0.661  0.987  0.949- 149 2.35 193 2.55 150 2.58 106 2.62
  40  0.598  0.294  0.709- 183 2.06 173 2.26 103 2.67
  41  0.866  0.183  0.804- 189 2.21 152 2.42
  42  0.759  0.310  0.881- 133 2.38 183 2.46 167 2.63
  43  0.476  0.219  0.367- 145 2.43 148 2.48 122 2.49
  44  0.243  0.023  0.716- 184 2.37 126 2.57 187 2.68
  45  0.333  0.079  0.317- 145 2.30 125 2.64
  46  0.997  0.130  0.619- 200 2.23
  47  0.401  0.982  0.482- 145 2.26 125 2.63
  48  0.944  0.277  0.436- 185 2.60 129 2.66
  49  0.389  0.419  0.403- 195 2.42 122 2.49 138 2.63
  50  0.020  0.234  0.268- 185 2.06 123 2.12
  51  0.185  0.277  0.311- 185 2.41 122 2.50 123 2.51 124 2.56
  52  0.006  0.379  0.189- 186 2.34 163 2.36 185 2.56
  53  0.137  0.451  0.292- 185 2.37 169 2.67
  54  0.279  0.494  0.192- 169 2.39 124 2.47 157 2.54 108 2.57
  55  0.785  0.606  0.303- 118 2.28 130 2.35 154 2.46 101 2.77
  56  0.104  0.517  0.068- 205 2.29 186 2.42
  57  0.823  0.514  0.140- 186 2.33 154 2.60 164 2.66
  58  0.114  0.717  0.288- 202 2.43 169 2.50 172 2.59 111 2.76
  59  0.931  0.663  0.045- 156 2.35 180 2.47 201 2.57
  60  0.085  0.425  0.442- 185 2.33 143 2.46 195 2.61
  61  0.429  0.026  0.761- 175 2.34 187 2.36  93 2.50 119 2.67
  62  0.380  0.931  0.934- 193 2.59 178 2.59 187 2.61
  63  0.396  0.864  0.676- 187 2.05 179 2.25 127 2.49  66 2.50 119 2.65
  64  0.098  0.866  0.720- 203 1.32
  65  0.230  0.849  0.850- 187 2.36 178 2.45
  66  0.314  0.752  0.746- 144 2.29 197 2.35 179 2.49  63 2.50 187 2.62
  67  0.045  0.817  0.477- 128 2.23 141 2.44 188 2.68
  68  0.857  0.938  0.511- 207 2.54 188 2.63 116 2.67
  69  0.913  0.772  0.285- 188 2.13
  70  0.880  0.754  0.539- 206 2.39 188 2.54 141 2.57
  71  0.784  0.786  0.405- 188 1.92 118 2.27 206 2.43
  72  0.747  0.122  0.679- 113 2.29 183 2.45
  73  0.005  0.317  0.863- 189 1.89 134 2.38 133 2.47
  74  0.389  0.160  0.865- 175 2.05 182 2.22  91 2.48 184 2.57
  75  0.120  0.158  0.841- 189 2.31 198 2.49 184 2.53
  76  0.255  0.345  0.783- 181 2.09
  77  0.124  0.862  0.074- 178 2.26 201 2.29 155 2.53
  78  0.214  0.449  0.955- 160 2.14 205 2.33 181 2.56 159 2.60
  79  0.594  0.428  0.389- 130 2.38 190 2.42 132 2.47
  80  0.476  0.546  0.127- 158 2.40 108 2.58 165 2.61 177 2.61
  81  0.707  0.221  0.337- 147 2.28 148 2.32 132 2.38 161 2.44
  82  0.519  0.585  0.304- 130 2.36 190 2.38 157 2.40 120 2.70
  83  0.427  0.724  0.258- 171 1.93 177 2.24   5 2.54 157 2.56 111 2.63
  84  0.753  0.417  0.359- 132 2.54 130 2.58
  85  0.812  0.040  0.275- 207 2.39 153 2.57 161 2.58
  86  0.500  0.897  0.134- 191 2.21 193 2.21
  87  0.662  0.667  0.397- 206 2.33 118 2.39 130 2.57
  88  0.683  0.950  0.342- 147 2.20 114 2.35 191 2.38  90 2.40
  89  0.480  0.023  0.250- 194 2.34 105 2.36 191 2.40 145 2.46  90 2.57
  90  0.537  0.939  0.371- 191 2.30  88 2.40 114 2.43 145 2.52  89 2.57
  91  0.399  0.240  0.736- 173 2.30 192 2.46  74 2.48 139 2.61 184 2.63
  92  0.796  0.547  0.586- 136 2.18 135 2.44 206 2.52 174 2.63
  93  0.572  0.067  0.717- 119 2.25 192 2.40 150 2.45  61 2.50
  94  0.200  0.177  0.642- 184 2.36 200 2.41 126 2.60
  95  0.572  0.098  0.474- 145 2.36 147 2.50 113 2.59
  96  0.625  0.179  0.880- 175 2.40 149 2.58
  97  0.694  0.919  0.574- 116 2.01 113 2.09 114 2.10 115 2.19
  98  0.635  0.693  0.598- 117 1.98 137 2.15 206 2.62 115 2.76
  99  0.351  0.297  0.222- 121 2.13 122 2.13 124 2.15  32 2.78
 100  0.221  0.949  0.532- 127 1.99 125 1.99 126 2.05 128 2.19
 101  0.931  0.560  0.380- 154 2.10 129 2.12 131 2.31  55 2.77
 102  0.885  0.432  0.730- 135 2.08 133 2.17 134 2.20  38 2.32
 103  0.536  0.329  0.562- 140 1.59 138 2.05 139 2.33  40 2.67
 104  0.100  0.600  0.526- 143 1.99 141 2.07 131 2.24
 105  0.599  0.110  0.245- 146 1.97 148 2.06 147 2.29  89 2.36
 106  0.793  0.010  0.857- 149 1.98 151 2.01 150 2.02 152 2.09   4 2.57  39 2.62
 107  0.908  0.833  0.118- 156 1.62 155 2.15 153 2.26   1 2.64
 108  0.333  0.546  0.055- 159 2.03 158 2.17 160 2.40  54 2.57  80 2.58
 109  0.829  0.261  0.173- 164 1.91 161 2.09 163 2.15 162 2.19
 110  0.677  0.480  0.991- 167 1.60 168 1.95 165 1.97 166 2.11
 111  0.275  0.662  0.264- 172 1.74 157 2.06 169 2.19 170 2.29  83 2.63  58 2.76
 112  0.517  0.408  0.847- 173 1.99 176 2.02 166 2.17  25 2.65
 113  0.678  0.047  0.581-  97 2.09  72 2.29  37 2.41  95 2.59
 114  0.642  0.882  0.462-  97 2.10  88 2.35  90 2.43  14 2.69
 115  0.605  0.853  0.651-  97 2.19 119 2.27  15 2.45  98 2.76
 116  0.786  0.867  0.641-  97 2.01  15 2.57  68 2.67
 117  0.688  0.680  0.706-  98 1.98  17 2.63
 118  0.731  0.736  0.287-   3 2.26  71 2.27  55 2.28  87 2.39   1 2.69
 119  0.520  0.965  0.639-  93 2.25 115 2.27  63 2.65  61 2.67
 120  0.497  0.701  0.420- 171 1.86  14 2.26  16 2.29  82 2.70
 121  0.432  0.392  0.179-  99 2.13 190 2.25  34 2.67
 122  0.336  0.284  0.351-  99 2.13  43 2.49  49 2.49  51 2.50
 123  0.119  0.147  0.256-  50 2.12  36 2.38  51 2.51
 124  0.235  0.347  0.180-  99 2.15  54 2.47  51 2.56
 125  0.251  0.981  0.418- 100 1.99  12 2.53  47 2.63  45 2.64 126 2.77
 126  0.277  0.057  0.567- 100 2.05  44 2.57  94 2.60 125 2.77
 127  0.282  0.850  0.573- 100 1.99  12 2.35  63 2.49  18 2.65
 128  0.085  0.940  0.524- 100 2.19  67 2.23   9 2.68
 129  0.915  0.440  0.431- 101 2.12  48 2.66
 130  0.657  0.535  0.309-  55 2.35  82 2.36  79 2.38 190 2.57  87 2.57  84 2.58   3 2.64
 131  0.072  0.585  0.393- 104 2.24 101 2.31
 132  0.675  0.313  0.447- 140 1.96  81 2.38  79 2.47  84 2.54
 133  0.875  0.399  0.858- 102 2.17  42 2.38  73 2.47 134 2.68
 134  0.015  0.434  0.774- 102 2.20  26 2.20  73 2.38  29 2.40  23 2.49 133 2.68
 135  0.883  0.560  0.707- 102 2.08  23 2.20  24 2.32  92 2.44
 136  0.677  0.498  0.543- 174 1.99  92 2.18 137 2.46
 137  0.560  0.582  0.594-  98 2.15  30 2.23 136 2.46 138 2.74
 138  0.492  0.443  0.525- 103 2.05  49 2.63 137 2.74
 139  0.423  0.240  0.579- 192 2.02 103 2.33  91 2.61
 140  0.572  0.269  0.493- 103 1.59 132 1.96
 141  0.027  0.697  0.568- 104 2.07  67 2.44  70 2.57  18 2.67
 142  0.348  0.647  0.605- 179 2.11  13 2.20
 143  0.063  0.493  0.574- 104 1.99  60 2.46  21 2.58
 144  0.178  0.712  0.763-  66 2.29  18 2.30  11 2.61  27 2.66
 145  0.455  0.072  0.390-  47 2.26  45 2.30  95 2.36  43 2.43  89 2.46  90 2.52
 146  0.684  0.103  0.159- 105 1.97 162 2.37
 147  0.675  0.085  0.360-  88 2.20  81 2.28 105 2.29  95 2.50
 148  0.586  0.236  0.262- 105 2.06  81 2.32  43 2.48
 149  0.754  0.098  0.932- 106 1.98  39 2.35  96 2.58
 150  0.685  0.002  0.794- 106 2.02  15 2.37  93 2.45  39 2.58
 151  0.798  0.891  0.892-   4 1.68 106 2.01   6 2.54  15 2.63
 152  0.874  0.039  0.761- 106 2.09  41 2.42
 153  0.830  0.944  0.151-   1 2.14 107 2.26  85 2.57
 154  0.924  0.567  0.253- 101 2.10 186 2.31  55 2.46  57 2.60
 155  0.979  0.893  0.023- 107 2.15  77 2.53
 156  0.842  0.777  0.066- 107 1.62  59 2.35   1 2.36
 157  0.370  0.579  0.288- 111 2.06  82 2.40  54 2.54  83 2.56  16 2.64
 158  0.446  0.573  0.986- 108 2.17  80 2.40  28 2.44  25 2.50   2 2.65
 159  0.250  0.605  0.981- 108 2.03  10 2.25  27 2.27  78 2.60
 160  0.328  0.405  0.006-  78 2.14  34 2.39 108 2.40  25 2.41
 161  0.846  0.196  0.282- 109 2.09  81 2.44  85 2.58
 162  0.727  0.226  0.092- 109 2.19 146 2.37
 163  0.950  0.264  0.118- 109 2.15  52 2.36
 164  0.828  0.370  0.219- 109 1.91  57 2.66
 165  0.632  0.510  0.099- 110 1.97  35 2.36  80 2.61
 166  0.608  0.381  0.941- 110 2.11 112 2.17 167 2.69
 167  0.761  0.427  0.993- 110 1.60 168 2.51  42 2.63 166 2.69
 168  0.730  0.561  0.919- 110 1.95 167 2.51
 169  0.170  0.593  0.214- 111 2.19  54 2.39  58 2.50  53 2.67
 170  0.287  0.769  0.173- 111 2.29  10 2.41
 171  0.440  0.781  0.360- 120 1.86  83 1.93  12 2.55   5 2.55
 172  0.254  0.697  0.363- 111 1.74  16 2.58  58 2.59  12 2.70
 173  0.508  0.289  0.814- 112 1.99  40 2.26  91 2.30
 174  0.699  0.427  0.640- 136 1.99  17 2.34  92 2.63
 175  0.501  0.097  0.863-  74 2.05  61 2.34  96 2.40
 176  0.564  0.475  0.754- 112 2.02  17 2.63  30 2.66
 177  0.528  0.694  0.169-   2 2.17  83 2.24   5 2.40   3 2.42  80 2.61
 178  0.235  0.891  0.993-   7 2.21  77 2.26  65 2.45  62 2.59
 179  0.436  0.732  0.654- 142 2.11  63 2.25  30 2.39  66 2.49 197 2.69
 180  0.987  0.604  0.918-  24 2.34  11 2.37  59 2.47  26 2.49  20 2.56
 181  0.248  0.472  0.804-  76 2.09  21 2.25  27 2.28  25 2.43  78 2.56  26 2.69
 182  0.392  0.184  0.998-  74 2.22  32 2.26  34 2.39  33 2.39  31 2.51
 183  0.711  0.250  0.751-  40 2.06  38 2.31  72 2.45  42 2.46
 184  0.261  0.159  0.771-  94 2.36  44 2.37  75 2.53  74 2.57  91 2.63
 185  0.051  0.339  0.333-  50 2.06  60 2.33  53 2.37  51 2.41  52 2.56  48 2.60
 186  0.969  0.507  0.132-  20 2.20 154 2.31  57 2.33  52 2.34  56 2.42
 187  0.344  0.908  0.781-  63 2.05  61 2.36  65 2.36  62 2.61  66 2.62  44 2.68
 188  0.897  0.825  0.402-  71 1.92  69 2.13  70 2.54  68 2.63  67 2.68
 189  0.998  0.220  0.799-  73 1.89  29 2.20  41 2.21  75 2.31
 190  0.536  0.447  0.254- 121 2.25  35 2.36  82 2.38  79 2.42 130 2.57
 191  0.583  0.914  0.241-   5 2.02  86 2.21  90 2.30  88 2.38  89 2.40
 192  0.467  0.142  0.643- 139 2.02  93 2.40  91 2.46
 193  0.522  0.940  0.008-  86 2.21  33 2.41  22 2.47  39 2.55  62 2.59
 194  0.371  0.032  0.156-  32 1.99  89 2.34  33 2.41
 195  0.246  0.444  0.446-  49 2.42  60 2.61
 196  0.552  0.782  0.895-  22 2.30  28 2.62
 197  0.394  0.635  0.782-  27 2.25  66 2.35  30 2.36  28 2.37 179 2.69
 198  0.159  0.158  0.988-  31 2.12  36 2.27  75 2.49   7 2.63
 199  0.862  0.214  0.563-  37 2.52  38 2.61
 200  0.078  0.235  0.577-  46 2.23  94 2.41  29 2.46
 201  0.076  0.729  0.063-  10 2.28  77 2.29  59 2.57
 202  0.074  0.861  0.271-   9 2.27  58 2.43   8 2.54
 203  0.099  0.932  0.767-  64 1.32  19 2.11
 204  0.945  0.794  0.769-   6 2.47
 205  0.069  0.436  0.958-  26 2.17  20 2.25  56 2.29  78 2.33
 206  0.763  0.672  0.500-  87 2.33  70 2.39  71 2.43  92 2.52  98 2.62
 207  0.909  0.004  0.380-  85 2.39  68 2.54
 208  0.251  0.384  0.617-  21 2.39  13 2.54
 

IMPORTANT INFORMATION: All symmetrisations will be switched off!
NOSYMM: (Re-)initialisation of all symmetry stuff for point group C_1.

 
 
 KPOINTS: Regular mesh centered at Gamma          

Automatic generation of k-mesh.
Space group operators:
 irot       det(A)        alpha          n_x          n_y          n_z        tau_x        tau_y        tau_z
    1     1.000000     0.000001     1.000000     0.000000     0.000000     0.000000     0.000000     0.000000
 
 Subroutine IBZKPT returns following result:
 ===========================================
 
 Found      1 irreducible k-points:
 
 Following reciprocal coordinates:
            Coordinates               Weight
  0.000000  0.000000  0.000000      1.000000
 
 Following cartesian coordinates:
            Coordinates               Weight
  0.000000  0.000000  0.000000      1.000000
 


--------------------------------------------------------------------------------------------------------




 Dimension of arrays:
   k-points           NKPTS =      1   k-points in BZ     NKDIM =      1   number of bands    NBANDS=    592
   number of dos      NEDOS =    301   number of ions     NIONS =    208
   non local maximal  LDIM  =      4   non local SUM 2l+1 LMDIM =      8
   total plane-waves  NPLWV = 729000
   max r-space proj   IRMAX =      1   max aug-charges    IRDMAX=   5618
   dimension x,y,z NGX =    90 NGY =   90 NGZ =   90
   dimension x,y,z NGXF=   180 NGYF=  180 NGZF=  180
   support grid    NGXF=   180 NGYF=  180 NGZF=  180
   ions per type =              96  16  80  16
   NGX,Y,Z   is equivalent  to a cutoff of   9.34,  9.29,  9.11 a.u.
   NGXF,Y,Z  is equivalent  to a cutoff of  18.67, 18.59, 18.22 a.u.

 SYSTEM =  LPSC                                    
 POSCAR =  New POSCAR file                         

 Startparameter for this run:
   NWRITE =      2    write-flag & timer
   PREC   = normal    normal or accurate (medium, high low for compatibility)
   ISTART =      0    job   : 0-new  1-cont  2-samecut
   ICHARG =      2    charge: 1-file 2-atom 10-const
   ISPIN  =      1    spin polarized calculation?
   LNONCOLLINEAR =      F non collinear calculations
   LSORBIT =      F    spin-orbit coupling
   INIWAV =      1    electr: 0-lowe 1-rand  2-diag
   LASPH  =      F    aspherical Exc in radial PAW
   METAGGA=      F    non-selfconsistent MetaGGA calc.

 Electronic Relaxation 1
   ENCUT  =  500.0 eV  36.75 Ry    6.06 a.u.  29.22 29.35 29.95*2*pi/ulx,y,z
   ENINI  =  500.0     initial cutoff
   ENAUG  =  628.9 eV  augmentation charge cutoff
   NELM   =    100;   NELMIN=  2; NELMDL=-12     # of ELM steps 
   EDIFF  = 0.1E-05   stopping-criterion for ELM
   LREAL  =      F    real-space projection
   NLSPLINE    = F    spline interpolate recip. space projectors
   LCOMPAT=      F    compatible to vasp.4.4
   GGA_COMPAT  = T    GGA compatible to vasp.4.4-vasp.4.6
   LMAXPAW     = -100 max onsite density
   LMAXMIX     =    2 max onsite mixed and CHGCAR
   VOSKOWN=      0    Vosko Wilk Nusair interpolation
   ROPT   =    0.00000   0.00000   0.00000   0.00000
 Ionic relaxation
   EDIFFG = -.1E-01   stopping-criterion for IOM
   NSW    =      1    number of steps for IOM
   NBLOCK =      1;   KBLOCK =      1    inner block; outer block 
   IBRION =      2    ionic relax: 0-MD 1-quasi-New 2-CG
   NFREE  =      1    steps in history (QN), initial steepest desc. (CG)
   ISIF   =      2    stress and relaxation
   IWAVPR =     11    prediction:  0-non 1-charg 2-wave 3-comb
   ISYM   =      0    0-nonsym 1-usesym 2-fastsym
   LCORR  =      T    Harris-Foulkes like correction to forces

   POTIM  = 0.5000    time-step for ionic-motion
   TEIN   =    0.0    initial temperature
   TEBEG  =    0.0;   TEEND  =   0.0 temperature during run
   SMASS  =  -3.00    Nose mass-parameter (am)
   estimated Nose-frequenzy (Omega)   =  0.10E-29 period in steps =****** mass=  -0.587E-26a.u.
   SCALEE = 1.0000    scale energy and forces
   NPACO  =    256;   APACO  = 16.0  distance and # of slots for P.C.
   PSTRESS=    0.0 pullay stress

  Mass of Ions in am
   POMASS =   7.01 30.97 32.07 35.45
  Ionic Valenz
   ZVAL   =   3.00  5.00  6.00  7.00
  Atomic Wigner-Seitz radii
   RWIGS  =  -1.00 -1.00 -1.00 -1.00
  virtual crystal weights 
   VCA    =   1.00  1.00  1.00  1.00
   NELECT =     960.0000    total number of electrons
   NUPDOWN=      -1.0000    fix difference up-down

 DOS related values:
   EMIN   =  10.00;   EMAX   =-10.00  energy-range for DOS
   EFERMI =   0.00
   ISMEAR =     0;   SIGMA  =   0.05  broadening in eV -4-tet -1-fermi 0-gaus

 Electronic relaxation 2 (details)
   IALGO  =     48    algorithm
   LDIAG  =      T    sub-space diagonalisation (order eigenvalues)
   LSUBROT=      F    optimize rotation matrix (better conditioning)
   TURBO    =      0    0=normal 1=particle mesh
   IRESTART =      0    0=no restart 2=restart with 2 vectors
   NREBOOT  =      0    no. of reboots
   NMIN     =      0    reboot dimension
   EREF     =   0.00    reference energy to select bands
   IMIX   =      4    mixing-type and parameters
     AMIX     =   0.40;   BMIX     =  1.00
     AMIX_MAG =   1.60;   BMIX_MAG =  1.00
     AMIN     =   0.10
     WC   =   100.;   INIMIX=   1;  MIXPRE=   1;  MAXMIX= -45

 Intra band minimization:
   WEIMIN = 0.0010     energy-eigenvalue tresh-hold
   EBREAK =  0.42E-09  absolut break condition
   DEPER  =   0.30     relativ break condition  

   TIME   =   0.40     timestep for ELM

  volume/ion in A,a.u.               =      20.38       137.50
  Fermi-wavevector in a.u.,A,eV,Ry     =   0.997951  1.885854 13.550121  0.995906
  Thomas-Fermi vector in A             =   2.130142
 
 Write flags
   LWAVE        =      F    write WAVECAR
   LDOWNSAMPLE  =      F    k-point downsampling of WAVECAR
   LCHARG       =      F    write CHGCAR
   LVTOT        =      F    write LOCPOT, total local potential
   LVHAR        =      F    write LOCPOT, Hartree potential only
   LELF         =      F    write electronic localiz. function (ELF)
   LORBIT       =     11    0 simple, 1 ext, 2 COOP (PROOUT), +10 PAW based schemes


 Dipole corrections
   LMONO  =      F    monopole corrections only (constant potential shift)
   LDIPOL =      F    correct potential (dipole corrections)
   IDIPOL =      0    1-x, 2-y, 3-z, 4-all directions 
   EPSILON=  1.0000000 bulk dielectric constant

 Exchange correlation treatment:
   GGA     =    --    GGA type
   LEXCH   =     8    internal setting for exchange type
   VOSKOWN=      0    Vosko Wilk Nusair interpolation
   LHFCALC =     F    Hartree Fock is set to
   LHFONE  =     F    Hartree Fock one center treatment
   AEXX    =    0.0000 exact exchange contribution

 Linear response parameters
   LEPSILON=     F    determine dielectric tensor
   LRPA    =     F    only Hartree local field effects (RPA)
   LNABLA  =     F    use nabla operator in PAW spheres
   LVEL    =     F    velocity operator in full k-point grid
   LINTERFAST=   F  fast interpolation
   KINTER  =     0    interpolate to denser k-point grid
   CSHIFT  =0.1000    complex shift for real part using Kramers Kronig
   OMEGAMAX=  -1.0    maximum frequency
   DEG_THRESHOLD= 0.2000000E-02 threshold for treating states as degnerate
   RTIME   =   -0.100 relaxation time in fs
  (WPLASMAI=    0.000 imaginary part of plasma frequency in eV, 0.658/RTIME)
   DFIELD  = 0.0000000 0.0000000 0.0000000 field for delta impulse in time
 
 Orbital magnetization related:
   ORBITALMAG=     F  switch on orbital magnetization
   LCHIMAG   =     F  perturbation theory with respect to B field
   DQ        =  0.001000  dq finite difference perturbation B field
   LLRAUG    =     F  two centre corrections for induced B field



--------------------------------------------------------------------------------------------------------


 conjugate gradient relaxation of ions
 charge density and potential will be updated during run
 non-spin polarized calculation
 RMM-DIIS sequential band-by-band
 perform sub-space diagonalisation
    before iterative eigenvector-optimisation
 modified Broyden-mixing scheme, WC =      100.0
 initial mixing is a Kerker type mixing with AMIX =  0.4000 and BMIX =      1.0000
 Hartree-type preconditioning will be used
 using additional bands          112
 reciprocal scheme for non local part
 use partial core corrections
 calculate Harris-corrections to forces 
   (improved forces if not selfconsistent)
 use gradient corrections 
 use of overlap-Matrix (Vanderbilt PP)
 Gauss-broadening in eV      SIGMA  =   0.05


--------------------------------------------------------------------------------------------------------


  energy-cutoff  :      500.00
  volume of cell :     4238.07
      direct lattice vectors                 reciprocal lattice vectors
    16.026082000  0.000000000  0.000000000     0.062398283  0.000000000  0.000000000
     0.000000000 16.100000000  0.000000000     0.000000000  0.062111801  0.000000000
     0.000000000  0.000000000 16.425367000     0.000000000  0.000000000  0.060881440

  length of vectors
    16.026082000 16.100000000 16.425367000     0.062398283  0.062111801  0.060881440


 
 k-points in units of 2pi/SCALE and weight: Regular mesh centered at Gamma          
   0.00000000  0.00000000  0.00000000       1.000
 
 k-points in reciprocal lattice and weights: Regular mesh centered at Gamma          
   0.00000000  0.00000000  0.00000000       1.000
 
 position of ions in fractional coordinates (direct lattice) 
   0.74889171  0.83895031  0.15950268
   0.55932386  0.67850932  0.04102660
   0.66980813  0.65036025  0.19552744
   0.81303715  0.92388820  0.98778919
   0.56925330  0.79303727  0.27042988
   0.89597695  0.76739752  0.90926431
   0.23624801  0.02158745  0.03563135
   0.22995577  0.86313665  0.29979239
   0.08544010  0.96624224  0.36302690
   0.21757657  0.72061491  0.05119179
   0.10016984  0.69732919  0.90209856
   0.31195710  0.83684472  0.43359518
   0.33006009  0.51508137  0.57680416
   0.50496185  0.80277640  0.51483720
   0.69660195  0.85774534  0.77075295
   0.37571192  0.62890062  0.44087843
   0.72037570  0.52452981  0.74378247
   0.17928087  0.73316149  0.62430873
   0.01486078  0.91313665  0.86367629
   0.94344332  0.47883602  0.00345120
   0.17224734  0.48584037  0.68999980
   0.54295117  0.92046584  0.86072354
   0.01399949  0.58373478  0.73836402
   0.86940776  0.62017950  0.83402703
   0.37381189  0.47952671  0.88638507
   0.09283492  0.51313478  0.85206620
   0.27288329  0.60525031  0.84473607
   0.41246326  0.69855901  0.91068285
   0.05091949  0.30586708  0.70756410
   0.52470841  0.63009938  0.71614838
   0.25013350  0.25118385  0.00607030
   0.36688131  0.15287640  0.12998005
   0.47195191  0.07323540  0.05492066
   0.44479243  0.31746708  0.03507629
   0.64526688  0.38748882  0.17719908
   0.09848820  0.15508075  0.11292411
   0.79063616  0.09387950  0.49423919
   0.82336406  0.31023851  0.68526932
   0.66145300  0.98654037  0.94895901
   0.59837395  0.29387764  0.70905569
   0.86557650  0.18305590  0.80372025
   0.75947446  0.30970373  0.88117361
   0.47563091  0.21936832  0.36687765
   0.24329902  0.02346143  0.71625797
   0.33261093  0.07886335  0.31713447
   0.99655674  0.13016708  0.61859805
   0.40147617  0.98221739  0.48181389
   0.94401114  0.27726646  0.43595982
   0.38861775  0.41930994  0.40304061
   0.01964217  0.23370807  0.26775901
   0.18535223  0.27661366  0.31066520
   0.00567319  0.37876335  0.18894190
   0.13650748  0.45086025  0.29150277
   0.27925977  0.49364410  0.19244623
   0.78470833  0.60588944  0.30313295
   0.10384509  0.51722360  0.06781036
   0.82342646  0.51379814  0.13973326
   0.11352120  0.71657143  0.28785841
   0.93100110  0.66331677  0.04540647
   0.08482235  0.42494907  0.44186593
   0.42918288  0.02623447  0.76056748
   0.37950885  0.93065217  0.93428049
   0.39582912  0.86350311  0.67558308
   0.09806577  0.86570807  0.72014220
   0.23044435  0.84854037  0.85011799
   0.31398130  0.75243478  0.74587679
   0.04496820  0.81653416  0.47735067
   0.85674715  0.93754037  0.51126772
   0.91346094  0.77164596  0.28490627
   0.88045225  0.75413665  0.53910881
   0.78408434  0.78598758  0.40541986
   0.74724440  0.12160621  0.67910811
   0.00473718  0.31715714  0.86265957
   0.38935530  0.16047081  0.86475389
   0.12049358  0.15772236  0.84127192
   0.25542488  0.34455528  0.78250915
   0.12442405  0.86165839  0.07413107
   0.21386325  0.44936460  0.95462098
   0.59361608  0.42843106  0.38888994
   0.47644958  0.54625839  0.12713019
   0.70722838  0.22101615  0.33744878
   0.51878057  0.58497702  0.30376429
   0.42686853  0.72427950  0.25790291
   0.75310984  0.41702981  0.35907447
   0.81232581  0.03986963  0.27492415
   0.50026825  0.89748447  0.13441039
   0.66235153  0.66709317  0.39708641
   0.68331736  0.94954037  0.34160515
   0.48035633  0.02284143  0.25023916
   0.53681804  0.93931056  0.37140175
   0.39897213  0.24002298  0.73575221
   0.79608353  0.54689565  0.58553943
   0.57244746  0.06727267  0.71655629
   0.19970820  0.17705901  0.64172691
   0.57192581  0.09831180  0.47370875
   0.62498120  0.17884286  0.88016907
   0.69446793  0.91860248  0.57411259
   0.63515212  0.69291925  0.59791967
   0.35136411  0.29666522  0.22240964
   0.22059727  0.94896894  0.53154916
   0.93098238  0.55955342  0.38017476
   0.88515084  0.43248137  0.73015720
   0.53595133  0.32930497  0.56215365
   0.10029962  0.60021242  0.52582752
   0.59865225  0.10963230  0.24473791
   0.79336297  0.01016280  0.85730200
   0.90807597  0.83260870  0.11766373
   0.33333849  0.54587205  0.05460456
   0.82922326  0.26078509  0.17346766
   0.67665946  0.48033851  0.99093676
   0.27517268  0.66240994  0.26444097
   0.51659788  0.40752733  0.84701304
   0.67845653  0.04727292  0.58079189
   0.64217193  0.88239752  0.46221007
   0.60463187  0.85268323  0.65140097
   0.78612477  0.86717391  0.64115462
   0.68835914  0.68010559  0.70610294
   0.73064022  0.73593168  0.28692570
   0.52020013  0.96496273  0.63861587
   0.49724568  0.70066460  0.42049654
   0.43189034  0.39245839  0.17938777
   0.33583629  0.28421988  0.35082017
   0.11850932  0.14689752  0.25630843
   0.23513046  0.34701988  0.17952354
   0.25105388  0.98063975  0.41803815
   0.27685307  0.05745118  0.56668505
   0.28230231  0.85034161  0.57287122
   0.08456964  0.94032298  0.52430548
   0.91459035  0.43980621  0.43096754
   0.65696656  0.53507516  0.30931425
   0.07242194  0.58457950  0.39299639
   0.67549885  0.31259130  0.44686368
   0.87500488  0.39928261  0.85760641
   0.01467982  0.43357764  0.77430233
   0.88281091  0.55966087  0.70666914
   0.67702761  0.49805217  0.54304540
   0.56006328  0.58216894  0.59367014
   0.49171781  0.44252857  0.52529298
   0.42320762  0.23970559  0.57880168
   0.57152459  0.26910807  0.49338076
   0.02713870  0.69733540  0.56781684
   0.34829474  0.64704969  0.60547019
   0.06327623  0.49325155  0.57431837
   0.17775461  0.71226708  0.76297839
   0.45518112  0.07180000  0.38999859
   0.68429077  0.10317143  0.15878367
   0.67511198  0.08476087  0.36009241
   0.58558979  0.23593043  0.26210251
   0.75386486  0.09840994  0.93210094
   0.68503955  0.00226702  0.79434450
   0.79848587  0.89072671  0.89194354
   0.87390667  0.03949870  0.76112759
   0.83029027  0.94422981  0.15118140
   0.92354451  0.56684534  0.25260440
   0.97867963  0.89272050  0.02292704
   0.84220211  0.77749068  0.06630171
   0.36981965  0.57874099  0.28789859
   0.44574401  0.57254099  0.98614539
   0.24999997  0.60457205  0.98133576
   0.32847455  0.40533416  0.00607490
   0.84617688  0.19618758  0.28244666
   0.72678400  0.22649752  0.09190967
   0.95048185  0.26387888  0.11811974
   0.82828729  0.36979627  0.21893392
   0.63231924  0.50953230  0.09881727
   0.60837952  0.38088509  0.94082525
   0.76089714  0.42725839  0.99250142
   0.73035942  0.56069627  0.91902361
   0.17004905  0.59265093  0.21403966
   0.28683492  0.76876398  0.17280223
   0.44018058  0.78084472  0.36044796
   0.25440279  0.69713665  0.36262691
   0.50773233  0.28893416  0.81407009
   0.69905420  0.42742609  0.64007093
   0.50072064  0.09723478  0.86339015
   0.56427329  0.47454783  0.75427234
   0.52781085  0.69445963  0.16853383
   0.23475357  0.89119876  0.99318329
   0.43583454  0.73157143  0.65429893
   0.98652933  0.60443292  0.91750157
   0.24810306  0.47206957  0.80429253
   0.39152364  0.18407081  0.99776157
   0.71141530  0.24998634  0.75133177
   0.26109501  0.15854596  0.77083209
   0.05071015  0.33877019  0.33299713
   0.96868966  0.50690683  0.13241287
   0.34426630  0.90844720  0.78068271
   0.89718123  0.82534783  0.40204216
   0.99849108  0.22018634  0.79855141
   0.53593074  0.44744845  0.25377333
   0.58255162  0.91423602  0.24099005
   0.46748794  0.14209565  0.64260360
   0.52173638  0.94007453  0.00813638
   0.37120177  0.03239584  0.15612924
   0.24619929  0.44431988  0.44625122
   0.55153842  0.78214907  0.89510329
   0.39368138  0.63522360  0.78197340
   0.15897148  0.15766708  0.98811795
   0.86196364  0.21394099  0.56331953
   0.07775575  0.23488447  0.57740323
   0.07623323  0.72854037  0.06265979
   0.07407862  0.86101242  0.27126700
   0.09904105  0.93226087  0.76675304
   0.94484728  0.79419255  0.76876212
   0.06918472  0.43645031  0.95829822
   0.76267549  0.67200000  0.49983358
   0.90878731  0.00396843  0.38041098
   0.25144449  0.38428571  0.61748392
 
 position of ions in cartesian coordinates  (Angst):
  12.00180000 13.50710000  2.61989000
   8.96377000 10.92400000  0.67387700
  10.73440000 10.47080000  3.21161000
  13.02980000 14.87460000 16.22480000
   9.12290000 12.76790000  4.44191000
  14.35900000 12.35510000 14.93500000
   3.78613000  0.34755800  0.58525800
   3.68529000 13.89650000  4.92420000
   1.36927000 15.55650000  5.96285000
   3.48690000 11.60190000  0.84084400
   1.60533000 11.22700000 14.81730000
   4.99945000 13.47320000  7.12196000
   5.28957000  8.29281000  9.47422000
   8.09256000 12.92470000  8.45639000
  11.16380000 13.80970000 12.65990000
   6.02119000 10.12530000  7.24159000
  11.54480000  8.44493000 12.21690000
   2.87317000 11.80390000 10.25450000
   0.23816000 14.70150000 14.18620000
  15.11970000  7.70926000  0.05668730
   2.76045000  7.82203000 11.33350000
   8.70138000 14.81950000 14.13770000
   0.22435700  9.39813000 12.12790000
  13.93320000  9.98489000 13.69920000
   5.99074000  7.72038000 14.55920000
   1.48778000  8.26147000 13.99550000
   4.37325000  9.74453000 13.87510000
   6.61017000 11.24680000 14.95830000
   0.81604000  4.92446000 11.62200000
   8.40902000 10.14460000 11.76300000
   4.00866000  4.04406000  0.09970690
   5.87967000  2.46131000  2.13497000
   7.56354000  1.17909000  0.90209200
   7.12828000  5.11122000  0.57614100
  10.34110000  6.23857000  2.91056000
   1.57838000  2.49680000  1.85482000
  12.67080000  1.51146000  8.11806000
  13.19530000  4.99484000 11.25580000
  10.60050000 15.88330000 15.58700000
   9.58959000  4.73143000 11.64650000
  13.87180000  2.94720000 13.20140000
  12.17140000  4.98623000 14.47360000
   7.62250000  3.53183000  6.02610000
   3.89913000  0.37772900 11.76480000
   5.33045000  1.26970000  5.20905000
  15.97090000  2.09569000 10.16070000
   6.43409000 15.81370000  7.91397000
  15.12880000  4.46399000  7.16080000
   6.22802000  6.75089000  6.62009000
   0.31478700  3.76270000  4.39804000
   2.97047000  4.45348000  5.10279000
   0.09091900  6.09809000  3.10344000
   2.18768000  7.25885000  4.78804000
   4.47544000  7.94767000  3.16100000
  12.57580000  9.75482000  4.97907000
   1.66423000  8.32730000  1.11381000
  13.19630000  8.27215000  2.29517000
   1.81930000 11.53680000  4.72818000
  14.92030000 10.67940000  0.74581800
   1.35937000  6.84168000  7.25781000
   6.87812000  0.42237500 12.49260000
   6.08204000 14.98350000 15.34590000
   6.34359000 13.90240000 11.09670000
   1.57161000 13.93790000 11.82860000
   3.69312000 13.66150000 13.96350000
   5.03189000 12.11420000 12.25130000
   0.72066400 13.14620000  7.84066000
  13.73030000 15.09440000  8.39776000
  14.63920000 12.42350000  4.67969000
  14.11020000 12.14160000  8.85506000
  12.56580000 12.65440000  6.65917000
  11.97540000  1.95786000 11.15460000
   0.07591840  5.10623000 14.16950000
   6.23984000  2.58358000 14.20390000
   1.93104000  2.53933000 13.81820000
   4.09346000  5.54734000 12.85300000
   1.99403000 13.87270000  1.21763000
   3.42739000  7.23477000 15.68000000
   9.51334000  6.89774000  6.38766000
   7.63562000  8.79476000  2.08816000
  11.33410000  3.55836000  5.54272000
   8.31402000  9.41813000  4.98944000
   6.84103000 11.66090000  4.23615000
  12.06940000  6.71418000  5.89793000
  13.01840000  0.64190100  4.51573000
   8.01734000 14.44950000  2.20774000
  10.61490000 10.74020000  6.52229000
  10.95090000 15.28760000  5.61099000
   7.69823000  0.36774700  4.11027000
   8.60309000 15.12290000  6.10041000
   6.39396000  3.86437000 12.08500000
  12.75810000  8.80502000  9.61770000
   9.17409000  1.08309000 11.76970000
   3.20054000  2.85065000 10.54060000
   9.16573000  1.58282000  7.78084000
  10.01600000  2.87937000 14.45710000
  11.12960000 14.78950000  9.43001000
  10.17900000 11.15600000  9.82105000
   5.63099000  4.77631000  3.65316000
   3.53531000 15.27840000  8.73089000
  14.92000000  9.00881000  6.24451000
  14.18550000  6.96295000 11.99310000
   8.58920000  5.30181000  9.23358000
   1.60741000  9.66342000  8.63691000
   9.59405000  1.76508000  4.01991000
  12.71450000  0.16362100 14.08150000
  14.55290000 13.40500000  1.93267000
   5.34211000  8.78854000  0.89690000
  13.28920000  4.19864000  2.84927000
  10.84420000  7.73345000 16.27650000
   4.40994000 10.66480000  4.34354000
   8.27904000  6.56119000 13.91250000
  10.87300000  0.76109400  9.53972000
  10.29150000 14.20660000  7.59197000
   9.68988000 13.72820000 10.69950000
  12.59850000 13.96150000 10.53120000
  11.03170000 10.94970000 11.59800000
  11.70930000 11.84850000  4.71286000
   8.33677000 15.53590000 10.48950000
   7.96890000 11.28070000  6.90681000
   6.92151000  6.31858000  2.94651000
   5.38214000  4.57594000  5.76235000
   1.89924000  2.36505000  4.20996000
   3.76822000  5.58702000  2.94874000
   4.02341000 15.78830000  6.86643000
   4.43687000  0.92496400  9.30801000
   4.52420000 13.69050000  9.40962000
   1.35532000 15.13920000  8.61191000
  14.65730000  7.08088000  7.07880000
  10.52860000  8.61471000  5.08060000
   1.16064000  9.41173000  6.45511000
  10.82560000  5.03272000  7.33990000
  14.02290000  6.42845000 14.08650000
   0.23526000  6.98060000 12.71820000
  14.14800000  9.01054000 11.60730000
  10.85010000  8.01864000  8.91972000
   8.97562000  9.37292000  9.75125000
   7.88031000  7.12471000  8.62813000
   6.78236000  3.85926000  9.50703000
   9.15930000  4.33264000  8.10396000
   0.43492700 11.22710000  9.32660000
   5.58180000 10.41750000  9.94507000
   1.01407000  7.94135000  9.43339000
   2.84871000 11.46750000 12.53220000
   7.29477000  1.15598000  6.40587000
  10.96650000  1.66106000  2.60808000
  10.81940000  1.36465000  5.91465000
   9.38471000  3.79848000  4.30513000
  12.08150000  1.58440000 15.31010000
  10.97850000  0.03649910 13.04740000
  12.79660000 14.34070000 14.65050000
  14.00530000  0.63592900 12.50180000
  13.30630000 15.20210000  2.48321000
  14.80080000  9.12621000  4.14912000
  15.68440000 14.37280000  0.37658500
  13.49720000 12.51760000  1.08903000
   5.92676000  9.31773000  4.72884000
   7.14353000  9.21791000 16.19780000
   4.00652000  9.73361000 16.11880000
   5.26416000  6.52588000  0.09978250
  13.56090000  3.15862000  4.63929000
  11.64750000  3.64661000  1.50965000
  15.23250000  4.24845000  1.94016000
  13.27420000  5.95372000  3.59607000
  10.13360000  8.20347000  1.62311000
   9.74994000  6.13225000 15.45340000
  12.19420000  6.87886000 16.30220000
  11.70480000  9.02721000 15.09530000
   2.72522000  9.54168000  3.51568000
   4.59684000 12.37710000  2.83834000
   7.05437000 12.57160000  5.92049000
   4.07708000 11.22390000  5.95628000
   8.13696000  4.65184000 13.37140000
  11.20310000  6.88156000 10.51340000
   8.02459000  1.56548000 14.18150000
   9.04309000  7.64022000 12.38920000
   8.45874000 11.18080000  2.76823000
   3.76218000 14.34830000 16.31340000
   6.98472000 11.77830000 10.74710000
  15.81020000  9.73137000 15.07030000
   3.97612000  7.60032000 13.21080000
   6.27459000  2.96354000 16.38860000
  11.40120000  4.02478000 12.34090000
   4.18433000  2.55259000 12.66120000
   0.81268500  5.45420000  5.46960000
  15.52430000  8.16120000  2.17493000
   5.51724000 14.62600000 12.82300000
  14.37830000 13.28810000  6.60369000
  16.00190000  3.54500000 13.11650000
   8.58887000  7.20392000  4.16832000
   9.33602000 14.71920000  3.95835000
   7.49200000  2.28774000 10.55500000
   8.36139000 15.13520000  0.13364300
   5.94891000  0.52157300  2.56448000
   3.94561000  7.15355000  7.32984000
   8.83900000 12.59260000 14.70240000
   6.30917000 10.22710000 12.84420000
   2.54769000  2.53844000 16.23020000
  13.81390000  3.44445000  9.25273000
   1.24612000  3.78164000  9.48406000
   1.22172000 11.72950000  1.02921000
   1.18719000 13.86230000  4.45566000
   1.58724000 15.00940000 12.59420000
  15.14220000 12.78650000 12.62720000
   1.10876000  7.02685000 15.74040000
  12.22270000 10.81920000  8.20995000
  14.56430000  0.06389170  6.24839000
   4.02967000  6.18700000 10.14240000
 


--------------------------------------------------------------------------------------------------------


 k-point  1 :   0.0000 0.0000 0.0000  plane waves:  107615

 maximum and minimum number of plane-waves per node :     13456    13445

 maximum number of plane-waves:    107615
 maximum index in each direction: 
   IXMAX=   29   IYMAX=   29   IZMAX=   29
   IXMIN=  -29   IYMIN=  -29   IZMIN=  -29


 parallel 3D FFT for wavefunctions:
    minimum data exchange during FFTs selected (reduces bandwidth)
 parallel 3D FFT for charge:
    minimum data exchange during FFTs selected (reduces bandwidth)


 total amount of memory used by VASP MPI-rank0   111673. kBytes
=======================================================================

   base      :      30000. kBytes
   nonl-proj :      48226. kBytes
   fftplans  :       6264. kBytes
   grid      :      10964. kBytes
   one-center:         79. kBytes
   wavefun   :      16140. kBytes
 
     INWAV:  cpu time    0.0000: real time    0.0002
 Broyden mixing: mesh for mixing (old mesh)
   NGX = 59   NGY = 59   NGZ = 59
  (NGX  =180   NGY  =180   NGZ  =180)
  gives a total of 205379 points

 initial charge density was supplied:
 charge density of overlapping atoms calculated
 number of electron     960.0000000 magnetization 
 keeping initial charge density in first step


--------------------------------------------------------------------------------------------------------


 Maximum index for augmentation-charges          363 (set IRDMAX)


--------------------------------------------------------------------------------------------------------


 First call to EWALD:  gamma=   0.110
 Maximum number of real-space cells 3x 3x 3
 Maximum number of reciprocal cells 3x 3x 3

    FEWALD:  cpu time    0.0085: real time    0.0085


--------------------------------------- Iteration      1(   1)  ---------------------------------------


    POTLOK:  cpu time    0.0849: real time    0.0860
    SETDIJ:  cpu time    0.0078: real time    0.0080
    EDDIAG:  cpu time    0.9670: real time    0.9697
  RMM-DIIS:  cpu time    5.5000: real time    5.5122
    ORTHCH:  cpu time    0.2654: real time    0.2658
       DOS:  cpu time    0.0007: real time    0.0007
    --------------------------------------------
      LOOP:  cpu time    6.8259: real time    6.8424

 eigenvalue-minimisations  :   592
 total energy-change (2. order) :-0.3803639E+04  (-0.4707023E+05)
 number of electron     960.0000000 magnetization 
 augmentation part      960.0000000 magnetization 

 Free energy of the ion-electron system (eV)
  ---------------------------------------------------
  alpha Z        PSCENC =       804.77846877
  Ewald energy   TEWEN  =    -29389.53337998
  -Hartree energ DENC   =    -12779.96594734
  -exchange      EXHF   =         0.00000000
  -V(xc)+E(xc)   XCENC  =      2538.31124643
  PAW double counting   =     32496.41603574   -33591.34861692
  entropy T*S    EENTRO =        -0.01784203
  eigenvalues    EBANDS =    -14866.26449930
  atomic energy  EATOM  =     50983.98519967
  Solvation  Ediel_sol  =         0.00000000
  ---------------------------------------------------
  free energy    TOTEN  =     -3803.63933497 eV

  energy without entropy =    -3803.62149294  energy(sigma->0) =    -3803.63041395


--------------------------------------------------------------------------------------------------------




--------------------------------------- Iteration      1(   2)  ---------------------------------------


    EDDIAG:  cpu time    0.9517: real time    0.9543
  RMM-DIIS:  cpu time    5.5209: real time    5.5230
    ORTHCH:  cpu time    0.2661: real time    0.2662
       DOS:  cpu time    0.0007: real time    0.0007
    --------------------------------------------
      LOOP:  cpu time    6.7394: real time    6.7442

 eigenvalue-minimisations  :   592
 total energy-change (2. order) : 0.6236650E+04  (-0.7360559E+04)
 number of electron     960.0000000 magnetization 
 augmentation part      960.0000000 magnetization 

 Free energy of the ion-electron system (eV)
  ---------------------------------------------------
  alpha Z        PSCENC =       804.77846877
  Ewald energy   TEWEN  =    -29389.53337998
  -Hartree energ DENC   =    -12779.96594734
  -exchange      EXHF   =         0.00000000
  -V(xc)+E(xc)   XCENC  =      2538.31124643
  PAW double counting   =     32496.41603574   -33591.34861692
  entropy T*S    EENTRO =        -0.08848101
  eigenvalues    EBANDS =     -8629.54423174
  atomic energy  EATOM  =     50983.98519967
  Solvation  Ediel_sol  =         0.00000000
  ---------------------------------------------------
  free energy    TOTEN  =      2433.01029362 eV

  energy without entropy =     2433.09877463  energy(sigma->0) =     2433.05453412


--------------------------------------------------------------------------------------------------------




--------------------------------------- Iteration      1(   3)  ---------------------------------------


    EDDIAG:  cpu time    0.9555: real time    0.9560
  RMM-DIIS:  cpu time    5.5151: real time    5.5180
    ORTHCH:  cpu time    0.2654: real time    0.2656
       DOS:  cpu time    0.0007: real time    0.0007
    --------------------------------------------
      LOOP:  cpu time    6.7367: real time    6.7403

 eigenvalue-minimisations  :   592
 total energy-change (2. order) :-0.1603199E+04  (-0.2350414E+04)
 number of electron     960.0000000 magnetization 
 augmentation part      960.0000000 magnetization 

 Free energy of the ion-electron system (eV)
  ---------------------------------------------------
  alpha Z        PSCENC =       804.77846877
  Ewald energy   TEWEN  =    -29389.53337998
  -Hartree energ DENC   =    -12779.96594734
  -exchange      EXHF   =         0.00000000
  -V(xc)+E(xc)   XCENC  =      2538.31124643
  PAW double counting   =     32496.41603574   -33591.34861692
  entropy T*S    EENTRO =        -0.06317170
  eigenvalues    EBANDS =    -10232.76851415
  atomic energy  EATOM  =     50983.98519967
  Solvation  Ediel_sol  =         0.00000000
  ---------------------------------------------------
  free energy    TOTEN  =       829.81132052 eV

  energy without entropy =      829.87449222  energy(sigma->0) =      829.84290637


--------------------------------------------------------------------------------------------------------




--------------------------------------- Iteration      1(   4)  ---------------------------------------


    EDDIAG:  cpu time    0.9544: real time    0.9551
  RMM-DIIS:  cpu time    5.5252: real time    5.5284
    ORTHCH:  cpu time    0.2637: real time    0.2637
       DOS:  cpu time    0.0007: real time    0.0007
    --------------------------------------------
      LOOP:  cpu time    6.7441: real time    6.7479

 eigenvalue-minimisations  :   592
 total energy-change (2. order) :-0.8232107E+03  (-0.8340829E+03)
 number of electron     960.0000000 magnetization 
 augmentation part      960.0000000 magnetization 

 Free energy of the ion-electron system (eV)
  ---------------------------------------------------
  alpha Z        PSCENC =       804.77846877
  Ewald energy   TEWEN  =    -29389.53337998
  -Hartree energ DENC   =    -12779.96594734
  -exchange      EXHF   =         0.00000000
  -V(xc)+E(xc)   XCENC  =      2538.31124643
  PAW double counting   =     32496.41603574   -33591.34861692
  entropy T*S    EENTRO =        -0.03564087
  eigenvalues    EBANDS =    -11056.00675359
  atomic energy  EATOM  =     50983.98519967
  Solvation  Ediel_sol  =         0.00000000
  ---------------------------------------------------
  free energy    TOTEN  =         6.60061191 eV

  energy without entropy =        6.63625278  energy(sigma->0) =        6.61843234


--------------------------------------------------------------------------------------------------------




--------------------------------------- Iteration      1(   5)  ---------------------------------------


    EDDIAG:  cpu time    0.9637: real time    0.9658
  RMM-DIIS:  cpu time    5.5221: real time    5.5258
    ORTHCH:  cpu time    0.2652: real time    0.2656
       DOS:  cpu time    0.0006: real time    0.0006
    --------------------------------------------
      LOOP:  cpu time    6.7515: real time    6.7577

 eigenvalue-minimisations  :   592
 total energy-change (2. order) :-0.3622964E+03  (-0.3317381E+03)
 number of electron     960.0000000 magnetization 
 augmentation part      960.0000000 magnetization 

 Free energy of the ion-electron system (eV)
  ---------------------------------------------------
  alpha Z        PSCENC =       804.77846877
  Ewald energy   TEWEN  =    -29389.53337998
  -Hartree energ DENC   =    -12779.96594734
  -exchange      EXHF   =         0.00000000
  -V(xc)+E(xc)   XCENC  =      2538.31124643
  PAW double counting   =     32496.41603574   -33591.34861692
  entropy T*S    EENTRO =        -0.00000686
  eigenvalues    EBANDS =    -11418.33879264
  atomic energy  EATOM  =     50983.98519967
  Solvation  Ediel_sol  =         0.00000000
  ---------------------------------------------------
  free energy    TOTEN  =      -355.69579313 eV

  energy without entropy =     -355.69578627  energy(sigma->0) =     -355.69578970


--------------------------------------------------------------------------------------------------------




--------------------------------------- Iteration      1(   6)  ---------------------------------------


    EDDIAG:  cpu time    0.9906: real time    0.9935
  RMM-DIIS:  cpu time    5.5139: real time    5.5183
    ORTHCH:  cpu time    0.2632: real time    0.2640
       DOS:  cpu time    0.0003: real time    0.0003
    --------------------------------------------
      LOOP:  cpu time    6.7680: real time    6.7761

 eigenvalue-minimisations  :   592
 total energy-change (2. order) :-0.1558484E+03  (-0.1420144E+03)
 number of electron     960.0000000 magnetization 
 augmentation part      960.0000000 magnetization 

 Free energy of the ion-electron system (eV)
  ---------------------------------------------------
  alpha Z        PSCENC =       804.77846877
  Ewald energy   TEWEN  =    -29389.53337998
  -Hartree energ DENC   =    -12779.96594734
  -exchange      EXHF   =         0.00000000
  -V(xc)+E(xc)   XCENC  =      2538.31124643
  PAW double counting   =     32496.41603574   -33591.34861692
  entropy T*S    EENTRO =        -0.00000000
  eigenvalues    EBANDS =    -11574.18715267
  atomic energy  EATOM  =     50983.98519967
  Solvation  Ediel_sol  =         0.00000000
  ---------------------------------------------------
  free energy    TOTEN  =      -511.54414631 eV

  energy without entropy =     -511.54414631  energy(sigma->0) =     -511.54414631


--------------------------------------------------------------------------------------------------------




--------------------------------------- Iteration      1(   7)  ---------------------------------------


    EDDIAG:  cpu time    0.9832: real time    0.9866
  RMM-DIIS:  cpu time    5.5141: real time    5.5185
    ORTHCH:  cpu time    0.2643: real time    0.2647
       DOS:  cpu time    0.0003: real time    0.0003
    --------------------------------------------
      LOOP:  cpu time    6.7618: real time    6.7702

 eigenvalue-minimisations  :   592
 total energy-change (2. order) :-0.7513422E+02  (-0.7158079E+02)
 number of electron     960.0000000 magnetization 
 augmentation part      960.0000000 magnetization 

 Free energy of the ion-electron system (eV)
  ---------------------------------------------------
  alpha Z        PSCENC =       804.77846877
  Ewald energy   TEWEN  =    -29389.53337998
  -Hartree energ DENC   =    -12779.96594734
  -exchange      EXHF   =         0.00000000
  -V(xc)+E(xc)   XCENC  =      2538.31124643
  PAW double counting   =     32496.41603574   -33591.34861692
  entropy T*S    EENTRO =        -0.00000000
  eigenvalues    EBANDS =    -11649.32137702
  atomic energy  EATOM  =     50983.98519967
  Solvation  Ediel_sol  =         0.00000000
  ---------------------------------------------------
  free energy    TOTEN  =      -586.67837065 eV

  energy without entropy =     -586.67837065  energy(sigma->0) =     -586.67837065


--------------------------------------------------------------------------------------------------------




--------------------------------------- Iteration      1(   8)  ---------------------------------------


    EDDIAG:  cpu time    0.9712: real time    0.9723
  RMM-DIIS:  cpu time    5.5118: real time    5.5157
    ORTHCH:  cpu time    0.2646: real time    0.2646
       DOS:  cpu time    0.0003: real time    0.0003
    --------------------------------------------
      LOOP:  cpu time    6.7479: real time    6.7529

 eigenvalue-minimisations  :   592
 total energy-change (2. order) :-0.4396941E+02  (-0.4134083E+02)
 number of electron     960.0000000 magnetization 
 augmentation part      960.0000000 magnetization 

 Free energy of the ion-electron system (eV)
  ---------------------------------------------------
  alpha Z        PSCENC =       804.77846877
  Ewald energy   TEWEN  =    -29389.53337998
  -Hartree energ DENC   =    -12779.96594734
  -exchange      EXHF   =         0.00000000
  -V(xc)+E(xc)   XCENC  =      2538.31124643
  PAW double counting   =     32496.41603574   -33591.34861692
  entropy T*S    EENTRO =        -0.00000000
  eigenvalues    EBANDS =    -11693.29078441
  atomic energy  EATOM  =     50983.98519967
  Solvation  Ediel_sol  =         0.00000000
  ---------------------------------------------------
  free energy    TOTEN  =      -630.64777804 eV

  energy without entropy =     -630.64777804  energy(sigma->0) =     -630.64777804


--------------------------------------------------------------------------------------------------------




--------------------------------------- Iteration      1(   9)  ---------------------------------------


    EDDIAG:  cpu time    0.9710: real time    0.9721
  RMM-DIIS:  cpu time   19.5822: real time   19.5964
    ORTHCH:  cpu time    0.2623: real time    0.2629
       DOS:  cpu time    0.0003: real time    0.0003
    --------------------------------------------
      LOOP:  cpu time   20.8159: real time   20.8317

 eigenvalue-minimisations  :  2143
 total energy-change (2. order) :-0.1131999E+03  (-0.1123559E+03)
 number of electron     960.0000000 magnetization 
 augmentation part      960.0000000 magnetization 

 Free energy of the ion-electron system (eV)
  ---------------------------------------------------
  alpha Z        PSCENC =       804.77846877
  Ewald energy   TEWEN  =    -29389.53337998
  -Hartree energ DENC   =    -12779.96594734
  -exchange      EXHF   =         0.00000000
  -V(xc)+E(xc)   XCENC  =      2538.31124643
  PAW double counting   =     32496.41603574   -33591.34861692
  entropy T*S    EENTRO =        -0.00000000
  eigenvalues    EBANDS =    -11806.49066706
  atomic energy  EATOM  =     50983.98519967
  Solvation  Ediel_sol  =         0.00000000
  ---------------------------------------------------
  free energy    TOTEN  =      -743.84766070 eV

  energy without entropy =     -743.84766070  energy(sigma->0) =     -743.84766070


--------------------------------------------------------------------------------------------------------




--------------------------------------- Iteration      1(  10)  ---------------------------------------


    EDDIAG:  cpu time    0.9342: real time    0.9448
  RMM-DIIS:  cpu time   19.5236: real time   19.5408
    ORTHCH:  cpu time    0.2621: real time    0.2628
       DOS:  cpu time    0.0004: real time    0.0004
    --------------------------------------------
      LOOP:  cpu time   20.7203: real time   20.7487

 eigenvalue-minimisations  :  2135
 total energy-change (2. order) :-0.5525230E+02  (-0.5512043E+02)
 number of electron     960.0000000 magnetization 
 augmentation part      960.0000000 magnetization 

 Free energy of the ion-electron system (eV)
  ---------------------------------------------------
  alpha Z        PSCENC =       804.77846877
  Ewald energy   TEWEN  =    -29389.53337998
  -Hartree energ DENC   =    -12779.96594734
  -exchange      EXHF   =         0.00000000
  -V(xc)+E(xc)   XCENC  =      2538.31124643
  PAW double counting   =     32496.41603574   -33591.34861692
  entropy T*S    EENTRO =        -0.00000000
  eigenvalues    EBANDS =    -11861.74296720
  atomic energy  EATOM  =     50983.98519967
  Solvation  Ediel_sol  =         0.00000000
  ---------------------------------------------------
  free energy    TOTEN  =      -799.09996084 eV

  energy without entropy =     -799.09996084  energy(sigma->0) =     -799.09996084


--------------------------------------------------------------------------------------------------------




--------------------------------------- Iteration      1(  11)  ---------------------------------------


    EDDIAG:  cpu time    0.9342: real time    0.9403
  RMM-DIIS:  cpu time   18.9935: real time   19.0019
    ORTHCH:  cpu time    0.2639: real time    0.2642
       DOS:  cpu time    0.0003: real time    0.0003
    --------------------------------------------
      LOOP:  cpu time   20.1919: real time   20.2067

 eigenvalue-minimisations  :  2072
 total energy-change (2. order) :-0.1317010E+02  (-0.1360954E+02)
 number of electron     960.0000000 magnetization 
 augmentation part      960.0000000 magnetization 

 Free energy of the ion-electron system (eV)
  ---------------------------------------------------
  alpha Z        PSCENC =       804.77846877
  Ewald energy   TEWEN  =    -29389.53337998
  -Hartree energ DENC   =    -12779.96594734
  -exchange      EXHF   =         0.00000000
  -V(xc)+E(xc)   XCENC  =      2538.31124643
  PAW double counting   =     32496.41603574   -33591.34861692
  entropy T*S    EENTRO =        -0.00000000
  eigenvalues    EBANDS =    -11874.91306295
  atomic energy  EATOM  =     50983.98519967
  Solvation  Ediel_sol  =         0.00000000
  ---------------------------------------------------
  free energy    TOTEN  =      -812.27005658 eV

  energy without entropy =     -812.27005658  energy(sigma->0) =     -812.27005658


--------------------------------------------------------------------------------------------------------




--------------------------------------- Iteration      1(  12)  ---------------------------------------


    EDDIAG:  cpu time    0.9422: real time    0.9427
  RMM-DIIS:  cpu time   18.7564: real time   18.7685
    ORTHCH:  cpu time    0.2616: real time    0.2617
       DOS:  cpu time    0.0004: real time    0.0004
    CHARGE:  cpu time    0.1940: real time    0.1941
    MIXING:  cpu time    0.0024: real time    0.0028
    --------------------------------------------
      LOOP:  cpu time   20.1569: real time   20.1702

 eigenvalue-minimisations  :  2048
 total energy-change (2. order) :-0.7847393E+01  (-0.7851705E+01)
 number of electron     959.9999781 magnetization 
 augmentation part        6.3456006 magnetization 

 Broyden mixing:
  rms(total) = 0.80300E+01    rms(broyden)= 0.80272E+01
  rms(prec ) = 0.83523E+01
  weight for this iteration     100.00

 Free energy of the ion-electron system (eV)
  ---------------------------------------------------
  alpha Z        PSCENC =       804.77846877
  Ewald energy   TEWEN  =    -29389.53337998
  -Hartree energ DENC   =    -12779.96594734
  -exchange      EXHF   =         0.00000000
  -V(xc)+E(xc)   XCENC  =      2538.31124643
  PAW double counting   =     32496.41603574   -33591.34861692
  entropy T*S    EENTRO =        -0.00000000
  eigenvalues    EBANDS =    -11882.76045608
  atomic energy  EATOM  =     50983.98519967
  Solvation  Ediel_sol  =         0.00000000
  ---------------------------------------------------
  free energy    TOTEN  =      -820.11744971 eV

  energy without entropy =     -820.11744971  energy(sigma->0) =     -820.11744971


--------------------------------------------------------------------------------------------------------




--------------------------------------- Iteration      1(  13)  ---------------------------------------


    POTLOK:  cpu time    0.0815: real time    0.0817
    SETDIJ:  cpu time    0.0070: real time    0.0070
    EDDIAG:  cpu time    0.9676: real time    0.9682
  RMM-DIIS:  cpu time   14.3585: real time   14.3642
    ORTHCH:  cpu time    0.2588: real time    0.2588
       DOS:  cpu time    0.0008: real time    0.0008
    CHARGE:  cpu time    0.1935: real time    0.1937
    MIXING:  cpu time    0.0024: real time    0.0024
    --------------------------------------------
      LOOP:  cpu time   15.8701: real time   15.8768

 eigenvalue-minimisations  :  1583
 total energy-change (2. order) : 0.4298199E+02  (-0.1102467E+02)
 number of electron     959.9999781 magnetization 
 augmentation part        7.0189567 magnetization 

 Broyden mixing:
  rms(total) = 0.51963E+01    rms(broyden)= 0.51962E+01
  rms(prec ) = 0.53178E+01
  weight for this iteration     100.00

 eigenvalues of (default mixing * dielectric matrix)
  average eigenvalue GAMMA=   2.1377
  2.1377

 Free energy of the ion-electron system (eV)
  ---------------------------------------------------
  alpha Z        PSCENC =       804.77846877
  Ewald energy   TEWEN  =    -29389.53337998
  -Hartree energ DENC   =    -13117.31942956
  -exchange      EXHF   =         0.00000000
  -V(xc)+E(xc)   XCENC  =      2562.03316849
  PAW double counting   =     46536.54551226   -47655.01344246
  entropy T*S    EENTRO =        -0.04188304
  eigenvalues    EBANDS =    -11502.56967700
  atomic energy  EATOM  =     50983.98519967
  Solvation  Ediel_sol  =         0.00000000
  ---------------------------------------------------
  free energy    TOTEN  =      -777.13546286 eV

  energy without entropy =     -777.09357982  energy(sigma->0) =     -777.11452134


--------------------------------------------------------------------------------------------------------




--------------------------------------- Iteration      1(  14)  ---------------------------------------


    POTLOK:  cpu time    0.0812: real time    0.0813
    SETDIJ:  cpu time    0.0071: real time    0.0071
    EDDIAG:  cpu time    0.9669: real time    0.9673
  RMM-DIIS:  cpu time   15.4759: real time   15.4832
    ORTHCH:  cpu time    0.2627: real time    0.2633
       DOS:  cpu time    0.0007: real time    0.0007
    CHARGE:  cpu time    0.1923: real time    0.1927
    MIXING:  cpu time    0.0023: real time    0.0023
    --------------------------------------------
      LOOP:  cpu time   16.9890: real time   16.9979

 eigenvalue-minimisations  :  1690
 total energy-change (2. order) : 0.1493208E+01  (-0.8980093E+01)
 number of electron     959.9999787 magnetization 
 augmentation part        6.4552791 magnetization 

 Broyden mixing:
  rms(total) = 0.19516E+01    rms(broyden)= 0.19514E+01
  rms(prec ) = 0.23588E+01
  weight for this iteration     100.00

 eigenvalues of (default mixing * dielectric matrix)
  average eigenvalue GAMMA=   1.7353
  1.1040  2.3665

 Free energy of the ion-electron system (eV)
  ---------------------------------------------------
  alpha Z        PSCENC =       804.77846877
  Ewald energy   TEWEN  =    -29389.53337998
  -Hartree energ DENC   =    -13409.29834319
  -exchange      EXHF   =         0.00000000
  -V(xc)+E(xc)   XCENC  =      2583.94975039
  PAW double counting   =     73494.85233675   -74637.89693888
  entropy T*S    EENTRO =        -0.03779980
  eigenvalues    EBANDS =    -11206.44154871
  atomic energy  EATOM  =     50983.98519967
  Solvation  Ediel_sol  =         0.00000000
  ---------------------------------------------------
  free energy    TOTEN  =      -775.64225499 eV

  energy without entropy =     -775.60445519  energy(sigma->0) =     -775.62335509


--------------------------------------------------------------------------------------------------------




--------------------------------------- Iteration      1(  15)  ---------------------------------------


    POTLOK:  cpu time    0.0809: real time    0.0811
    SETDIJ:  cpu time    0.0070: real time    0.0070
    EDDIAG:  cpu time    0.9682: real time    0.9719
  RMM-DIIS:  cpu time   17.4289: real time   17.4384
    ORTHCH:  cpu time    0.2626: real time    0.2635
       DOS:  cpu time    0.0007: real time    0.0008
    CHARGE:  cpu time    0.1947: real time    0.1951
    MIXING:  cpu time    0.0024: real time    0.0024
    --------------------------------------------
      LOOP:  cpu time   18.9455: real time   18.9601

 eigenvalue-minimisations  :  1903
 total energy-change (2. order) :-0.2215889E+01  (-0.3567461E+01)
 number of electron     959.9999784 magnetization 
 augmentation part        5.2890655 magnetization 

 Broyden mixing:
  rms(total) = 0.10754E+01    rms(broyden)= 0.10751E+01
  rms(prec ) = 0.13520E+01
  weight for this iteration     100.00

 eigenvalues of (default mixing * dielectric matrix)
  average eigenvalue GAMMA=   1.3912
  2.4000  1.2455  0.5282

 Free energy of the ion-electron system (eV)
  ---------------------------------------------------
  alpha Z        PSCENC =       804.77846877
  Ewald energy   TEWEN  =    -29389.53337998
  -Hartree energ DENC   =    -13435.33580698
  -exchange      EXHF   =         0.00000000
  -V(xc)+E(xc)   XCENC  =      2584.56515393
  PAW double counting   =     79515.35928373   -80662.80501237
[...]
      9.59405      1.76508      4.01991        -0.280951      1.162625      2.209513
     12.71450      0.16362     14.08150        -0.094502      0.938369     -3.743119
     14.55290     13.40500      1.93267        14.526681     13.277725     11.592428
      5.34211      8.78854      0.89690         1.346629     -1.578687     -1.232128
     13.28920      4.19864      2.84927         2.082046     -1.965870     -0.506735
     10.84420      7.73345     16.27650       -17.089729     10.101099     -0.740017
      4.40994     10.66480      4.34354         0.990297     -3.052881    -10.126613
      8.27904      6.56119     13.91250        -0.992968      1.675660      0.407952
     10.87300      0.76109      9.53972         0.630460     -0.481486     -0.667415
     10.29150     14.20660      7.59197         0.898890     -0.464418      0.233038
      9.68988     13.72820     10.69950        -1.398150      2.347913     -0.279739
     12.59850     13.96150     10.53120         1.697894      0.328910     -1.629042
     11.03170     10.94970     11.59800         0.583595     -0.037092      1.256751
     11.70930     11.84850      4.71286         0.188552      0.585515     -0.542665
      8.33677     15.53590     10.48950        -1.050119     -1.323612     -0.185444
      7.96890     11.28070      6.90681         3.310883     -4.578315      2.818416
      6.92151      6.31858      2.94651         0.523886      0.453113      0.193028
      5.38214      4.57594      5.76235         0.826994      0.130735     -0.669437
      1.89924      2.36505      4.20996         1.312199     -1.076955     -0.341032
      3.76822      5.58702      2.94874        -0.115649      0.092275      0.550770
      4.02341     15.78830      6.86643         0.296401     -1.726254     -3.570870
      4.43687      0.92496      9.30801        -0.514761     -0.056178      1.991938
      4.52420     13.69050      9.40962        -0.025243     -1.119940      0.037380
      1.35532     15.13920      8.61191         1.398639      0.535815      0.666723
     14.65730      7.08088      7.07880        -0.639023      1.621343     -0.467559
     10.52860      8.61471      5.08060         0.893114     -0.194816      0.630587
      1.16064      9.41173      6.45511        -1.332147      0.027858     -0.120083
     10.82560      5.03272      7.33990         2.714825      0.977913     -0.774095
     14.02290      6.42845     14.08650        -1.797272     -0.060498     -0.352503
      0.23526      6.98060     12.71820         1.334814     -0.032985     -2.382507
     14.14800      9.01054     11.60730        -1.693191      0.238199     -0.461254
     10.85010      8.01864      8.91972        -0.493949     -0.087246      0.275779
      8.97562      9.37292      9.75125         0.999042      0.632200     -1.836721
      7.88031      7.12471      8.62813        -1.322111     -0.154288     -1.251377
      6.78236      3.85926      9.50703         0.027404      0.610242     -0.388432
      9.15930      4.33264      8.10396         6.554340    -16.651278    -18.259906
      0.43493     11.22710      9.32660        -0.248453      0.764209      0.376823
      5.58180     10.41750      9.94507        -0.241570      1.176535     -0.860561
      1.01407      7.94135      9.43339        -0.412961     -0.486205      0.939814
      2.84871     11.46750     12.53220        -0.470022      0.418667      1.105140
      7.29477      1.15598      6.40587         0.137871     -0.587141     -0.445150
     10.96650      1.66106      2.60808         1.544078     -0.434626     -2.584179
     10.81940      1.36465      5.91465        -0.129413     -0.331565      0.054536
      9.38471      3.79848      4.30513        -0.856038      0.689237     -0.322850
     12.08150      1.58440     15.31010         1.377451      0.765335      2.050490
     10.97850      0.03650     13.04740        -1.923382     -0.953168     -0.739044
     12.79660     14.34070     14.65050        -1.411748     -3.587409     -7.197363
     14.00530      0.63593     12.50180         0.119146     -0.042473      1.133120
     13.30630     15.20210      2.48321         0.307433      0.255672     -0.208341
     14.80080      9.12621      4.14912        -0.317418      0.574741     -0.046940
     15.68440     14.37280      0.37659         0.488538      0.782798     -0.564793
     13.49720     12.51760      1.08903       -15.365667    -13.422817    -11.927389
      5.92676      9.31773      4.72884         0.188914     -0.385821     -0.880088
      7.14353      9.21791     16.19780        -0.179334      0.160093      0.662522
      4.00652      9.73361     16.11880        -1.307772      0.197346     -0.110076
      5.26416      6.52588      0.09978         0.394585      0.802679      0.371615
     13.56090      3.15862      4.63929        -0.377578     -0.944562     -0.522531
     11.64750      3.64661      1.50965         0.463770      0.229329      1.219121
     15.23250      4.24845      1.94016        -0.753391     -0.710799     -0.481666
     13.27420      5.95372      3.59607        -1.552869      3.914140      0.982388
     10.13360      8.20347      1.62311        -0.676200      1.380468      1.043218
      9.74994      6.13225     15.45340        -1.167164     -0.719455     -0.504064
     12.19420      6.87886     16.30220        20.744819    -14.293541      2.914253
     11.70480      9.02721     15.09530        -0.660193      3.681616     -2.153792
      2.72522      9.54168      3.51568         0.718197      0.239531      0.068115
      4.59684     12.37710      2.83834         0.275570     -1.126904      1.699917
      7.05437     12.57160      5.92049        -2.084612      6.611199      0.099091
      4.07708     11.22390      5.95628        -3.365309      4.397188      9.854020
      8.13696      4.65184     13.37140        -0.542404     -1.632647      0.314863
     11.20310      6.88156     10.51340         0.435840     -0.567536     -0.288457
      8.02459      1.56548     14.18150         1.814896     -2.143737     -0.869459
      9.04309      7.64022     12.38920         0.338258      0.541574     -0.215821
      8.45874     11.18080      2.76823         0.208668      0.011100      0.419200
      3.76218     14.34830     16.31340         0.652713     -0.465065     -0.351633
      6.98472     11.77830     10.74710         0.476950      0.373303     -2.349256
     15.81020      9.73137     15.07030        -0.842481      1.040018     -0.265942
      3.97612      7.60032     13.21080        -0.635601      0.849998      1.356913
      6.27459      2.96354     16.38860        -0.541458      0.456743      1.442813
     11.40120      4.02478     12.34090         2.029474     -1.283717      1.004538
      4.18433      2.55259     12.66120         0.007205      0.859777      0.316949
      0.81268      5.45420      5.46960         0.223688      1.315685      0.471523
     15.52430      8.16120      2.17493         0.637722      0.500323     -0.172618
      5.51724     14.62600     12.82300        -0.705811      0.320180      1.818588
     14.37830     13.28810      6.60369         2.934579      0.303893      2.354674
     16.00190      3.54500     13.11650         0.301666     -3.427604     -1.948694
      8.58887      7.20392      4.16832        -0.709543     -0.401545      0.139125
      9.33602     14.71920      3.95835         0.289420      1.881538     -0.243808
      7.49200      2.28774     10.55500         0.297651     -0.472708      0.138626
      8.36139     15.13520      0.13364        -0.024016      0.370955      0.121443
      5.94891      0.52157      2.56448         0.082522     -1.803771      0.782047
      3.94561      7.15355      7.32984         0.191489      0.830203     -0.890232
      8.83900     12.59260     14.70240        -0.127926     -0.451829     -0.045185
      6.30917     10.22710     12.84420        -0.169720     -0.697572      2.501184
      2.54769      2.53844     16.23020        -0.574676     -0.777530     -0.032115
     13.81390      3.44445      9.25273         0.061329     -0.605091     -0.168071
      1.24612      3.78164      9.48406         0.215714     -0.161429      0.157356
      1.22172     11.72950      1.02921         0.385484     -0.667207      0.027403
      1.18719     13.86230      4.45566         0.811739     -0.473481      0.135711
      1.58724     15.00940     12.59420         1.266080     23.405218     15.679757
     15.14220     12.78650     12.62720        -0.072739     -0.147292      0.602872
      1.10876      7.02685     15.74040         0.926856     -1.392831      1.101913
     12.22270     10.81920      8.20995         0.558331      0.005404     -0.146795
     14.56430      0.06389      6.24839        -0.477746      1.472603      0.873252
      4.02967      6.18700     10.14240         0.158129     -0.288885      1.136522
 -----------------------------------------------------------------------------------
    total drift:                               -0.004346      0.012819      0.004914


--------------------------------------------------------------------------------------------------------



  FREE ENERGIE OF THE ION-ELECTRON SYSTEM (eV)
  ---------------------------------------------------
  free  energy   TOTEN  =      -775.35987526 eV

  energy  without entropy=     -775.35692312  energy(sigma->0) =     -775.35839919
 


--------------------------------------------------------------------------------------------------------


    POTLOK:  cpu time    0.0922: real time    0.0922


--------------------------------------------------------------------------------------------------------




--------------------------------------------------------------------------------------------------------


     LOOP+:  cpu time 1052.1938: real time 1053.0598
    4ORBIT:  cpu time    0.0000: real time    0.0000
 


 total charge     
 
# of ion       s       p       d       tot
------------------------------------------
    1        2.023   0.061   0.000   2.084
    2        2.015   0.045   0.000   2.060
    3        2.021   0.055   0.000   2.077
    4        2.069   0.176   0.000   2.246
    5        2.034   0.080   0.000   2.114
    6        2.008   0.036   0.000   2.044
    7        2.015   0.040   0.000   2.055
    8        2.009   0.034   0.000   2.043
    9        2.006   0.032   0.000   2.038
   10        2.022   0.057   0.000   2.080
   11        2.012   0.038   0.000   2.050
   12        2.020   0.055   0.000   2.074
   13        2.012   0.042   0.000   2.054
   14        2.011   0.044   0.000   2.055
   15        2.013   0.047   0.000   2.059
   16        2.015   0.045   0.000   2.060
   17        2.014   0.044   0.000   2.059
   18        2.013   0.043   0.000   2.056
   19        2.009   0.038   0.000   2.047
   20        2.019   0.056   0.000   2.075
   21        2.019   0.051   0.000   2.070
   22        2.011   0.040   0.000   2.051
   23        2.015   0.048   0.000   2.062
   24        2.019   0.049   0.000   2.068
   25        2.019   0.053   0.000   2.072
   26        2.026   0.068   0.000   2.094
   27        2.028   0.070   0.000   2.098
   28        2.010   0.038   0.000   2.048
   29        2.023   0.057   0.000   2.080
   30        2.019   0.056   0.000   2.075
   31        2.017   0.046   0.000   2.063
   32        2.035   0.078   0.000   2.114
   33        2.015   0.044   0.000   2.059
   34        2.013   0.042   0.000   2.055
   35        2.011   0.040   0.000   2.051
   36        2.017   0.042   0.000   2.059
   37        2.010   0.035   0.000   2.044
   38        2.021   0.052   0.000   2.073
   39        2.013   0.045   0.000   2.058
   40        2.031   0.072   0.000   2.103
   41        2.021   0.053   0.000   2.074
   42        2.016   0.045   0.000   2.061
   43        2.017   0.048   0.000   2.065
   44        2.014   0.043   0.000   2.056
   45        2.009   0.035   0.000   2.044
   46        2.004   0.029   0.000   2.034
   47        2.015   0.045   0.000   2.060
   48        2.001   0.023   0.000   2.024
   49        2.011   0.037   0.000   2.048
   50        2.038   0.086   0.000   2.125
   51        2.017   0.049   0.000   2.066
   52        2.020   0.053   0.000   2.073
   53        2.013   0.040   0.000   2.053
   54        2.018   0.052   0.000   2.070
   55        2.027   0.063   0.000   2.090
   56        2.011   0.039   0.000   2.050
   57        2.009   0.040   0.000   2.049
   58        2.009   0.038   0.000   2.047
   59        2.014   0.044   0.000   2.059
   60        2.016   0.047   0.000   2.063
   61        2.022   0.056   0.000   2.078
   62        2.008   0.032   0.000   2.040
   63        2.038   0.087   0.000   2.125
   64        2.175   1.029   0.000   3.204
   65        2.018   0.048   0.000   2.066
   66        2.024   0.060   0.000   2.084
   67        2.021   0.052   0.000   2.072
   68        2.009   0.035   0.000   2.045
   69        2.016   0.047   0.000   2.063
   70        2.012   0.040   0.000   2.052
   71        2.045   0.103   0.000   2.148
   72        2.017   0.047   0.000   2.064
   73        2.044   0.102   0.000   2.146
   74        2.036   0.083   0.000   2.119
   75        2.016   0.044   0.000   2.060
   76        2.022   0.052   0.000   2.074
   77        2.019   0.052   0.000   2.072
   78        2.028   0.069   0.000   2.097
   79        2.018   0.053   0.000   2.071
   80        2.013   0.045   0.000   2.058
   81        2.027   0.068   0.000   2.095
   82        2.019   0.056   0.000   2.075
   83        2.047   0.106   0.000   2.153
   84        2.009   0.035   0.000   2.044
   85        2.011   0.039   0.000   2.050
   86        2.021   0.052   0.000   2.072
   87        2.017   0.050   0.000   2.066
   88        2.027   0.067   0.000   2.095
   89        2.027   0.070   0.000   2.097
   90        2.024   0.060   0.000   2.084
   91        2.017   0.051   0.000   2.069
   92        2.020   0.055   0.000   2.074
   93        2.022   0.058   0.000   2.080
   94        2.015   0.042   0.000   2.056
   95        2.013   0.043   0.000   2.056
   96        2.010   0.037   0.000   2.047
   97        0.990   1.354   0.000   2.343
   98        1.133   1.264   0.000   2.397
   99        1.064   1.306   0.000   2.370
  100        0.979   1.391   0.000   2.370
  101        1.082   1.268   0.000   2.351
  102        1.075   1.316   0.000   2.391
  103        1.098   1.659   0.000   2.757
  104        1.075   1.332   0.000   2.407
  105        1.080   1.348   0.000   2.428
  106        0.972   1.415   0.000   2.386
  107        1.086   1.581   0.000   2.666
  108        1.082   1.291   0.000   2.373
  109        0.986   1.369   0.000   2.355
  110        1.019   1.678   0.000   2.698
  111        0.995   1.462   0.000   2.456
  112        1.054   1.396   0.000   2.450
  113        1.342   2.411   0.000   3.753
  114        1.335   2.411   0.000   3.746
  115        1.384   2.258   0.000   3.642
  116        1.363   2.354   0.000   3.717
  117        1.347   2.412   0.000   3.758
  118        1.311   2.477   0.000   3.788
  119        1.365   2.301   0.000   3.666
  120        1.335   2.498   0.000   3.832
  121        1.356   2.340   0.000   3.696
  122        1.345   2.387   0.000   3.732
  123        1.323   2.390   0.000   3.714
  124        1.341   2.383   0.000   3.724
  125        1.344   2.448   0.000   3.792
  126        1.354   2.390   0.000   3.744
  127        1.349   2.430   0.000   3.778
  128        1.343   2.372   0.000   3.715
  129        1.352   2.333   0.000   3.685
  130        1.324   2.428   0.000   3.751
  131        1.365   2.304   0.000   3.670
  132        1.334   2.448   0.000   3.782
  133        1.352   2.379   0.000   3.730
  134        1.341   2.437   0.000   3.778
  135        1.336   2.464   0.000   3.800
  136        1.375   2.287   0.000   3.662
  137        1.388   2.278   0.000   3.665
  138        1.353   2.388   0.000   3.742
  139        1.375   2.262   0.000   3.637
  140        1.372   2.692   0.000   4.064
  141        1.333   2.425   0.000   3.758
  142        1.332   2.366   0.000   3.698
  143        1.347   2.430   0.000   3.776
  144        1.314   2.417   0.000   3.731
  145        1.309   2.485   0.000   3.794
  146        1.374   2.323   0.000   3.697
  147        1.331   2.445   0.000   3.775
  148        1.343   2.418   0.000   3.761
  149        1.349   2.430   0.000   3.780
  150        1.339   2.480   0.000   3.820
  151        1.360   2.552   0.000   3.911
  152        1.345   2.382   0.000   3.727
  153        1.343   2.392   0.000   3.735
  154        1.375   2.297   0.000   3.672
  155        1.334   2.410   0.000   3.743
  156        1.362   2.765   0.000   4.127
  157        1.343   2.431   0.000   3.774
  158        1.341   2.409   0.000   3.749
  159        1.331   2.485   0.000   3.816
  160        1.341   2.400   0.000   3.741
  161        1.344   2.397   0.000   3.741
  162        1.382   2.223   0.000   3.604
  163        1.339   2.380   0.000   3.719
  164        1.344   2.477   0.000   3.820
  165        1.348   2.455   0.000   3.803
  166        1.364   2.365   0.000   3.730
  167        1.396   2.705   0.000   4.101
  168        1.349   2.424   0.000   3.773
  169        1.342   2.387   0.000   3.729
  170        1.354   2.312   0.000   3.666
  171        1.332   2.534   0.000   3.866
  172        1.353   2.608   0.000   3.962
  173        1.342   2.471   0.000   3.813
  174        1.368   2.316   0.000   3.685
  175        1.326   2.443   0.000   3.770
  176        1.358   2.376   0.000   3.735
  177        1.310   2.480   0.000   3.790
  178        1.311   2.440   0.000   3.751
  179        1.347   2.359   0.000   3.705
  180        1.315   2.441   0.000   3.756
  181        1.315   2.502   0.000   3.817
  182        1.318   2.459   0.000   3.776
  183        1.315   2.470   0.000   3.785
  184        1.309   2.425   0.000   3.734
  185        1.318   2.478   0.000   3.796
  186        1.335   2.422   0.000   3.757
  187        1.311   2.483   0.000   3.794
  188        1.328   2.489   0.000   3.817
  189        1.318   2.543   0.000   3.861
  190        1.383   2.278   0.000   3.661
  191        1.316   2.517   0.000   3.833
  192        1.343   2.371   0.000   3.713
  193        1.592   3.593   0.000   5.185
  194        1.593   3.608   0.000   5.201
  195        1.596   3.533   0.000   5.129
  196        1.590   3.549   0.000   5.139
  197        1.601   3.594   0.000   5.195
  198        1.589   3.606   0.000   5.195
  199        1.590   3.543   0.000   5.133
  200        1.590   3.571   0.000   5.162
  201        1.595   3.579   0.000   5.174
  202        1.593   3.554   0.000   5.146
  203        1.619   3.741   0.000   5.360
  204        1.594   3.524   0.000   5.118
  205        1.596   3.615   0.000   5.211
  206        1.602   3.556   0.000   5.158
  207        1.599   3.521   0.000   5.119
  208        1.597   3.538   0.000   5.135
--------------------------------------------------
tot        343.747 279.407   0.000 623.154
 

 total amount of memory used by VASP MPI-rank0   111673. kBytes
=======================================================================

   base      :      30000. kBytes
   nonl-proj :      48226. kBytes
   fftplans  :       6264. kBytes
   grid      :      10964. kBytes
   one-center:         79. kBytes
   wavefun   :      16140. kBytes
 
  
  
 General timing and accounting informations for this job:
 ========================================================
  
                  Total CPU time used (sec):     1061.525
                            User time (sec):     1057.832
                          System time (sec):        3.693
                         Elapsed time (sec):     1062.884
  
                   Maximum memory used (kb):      330552.
                   Average memory used (kb):           0.
  
                          Minor page faults:       464880
                          Major page faults:            0
                 Voluntary context switches:         8322
