LPSC                                    
           1
    16.026082    0.000000    0.000000
     0.000000   16.100000    0.000000
     0.000000    0.000000   16.425367
   Li   P    S    Cl
  96  16  80  16
Direct configuration=     1
   0.74889171  0.83895031  0.15950268
   0.55932386  0.67850932  0.04102660
   0.66980813  0.65036025  0.19552744
   0.81303715  0.92388820  0.98778919
   0.56925330  0.79303727  0.27042988
   0.89597695  0.76739752  0.90926431
   0.23624801  0.02158745  0.03563135
   0.22995577  0.86313665  0.29979239
   0.08544010  0.96624224  0.36302690
   0.21757657  0.72061491  0.05119179
   0.10016984  0.69732919  0.90209856
   0.31195710  0.83684472  0.43359518
   0.33006009  0.51508137  0.57680416
   0.50496185  0.80277640  0.51483720
   0.69660195  0.85774534  0.77075295
   0.37571192  0.62890062  0.44087843
   0.72037570  0.52452981  0.74378247
   0.17928087  0.73316149  0.62430873
   0.01486078  0.91313665  0.86367629
   0.94344332  0.47883602  0.00345120
   0.17224734  0.48584037  0.68999980
   0.54295117  0.92046584  0.86072354
   0.01399949  0.58373478  0.73836402
   0.86940776  0.62017950  0.83402703
   0.37381189  0.47952671  0.88638507
   0.09283492  0.51313478  0.85206620
   0.27288329  0.60525031  0.84473607
   0.41246326  0.69855901  0.91068285
   0.05091949  0.30586708  0.70756410
   0.52470841  0.63009938  0.71614838
   0.25013350  0.25118385  0.00607030
   0.36688131  0.15287640  0.12998005
   0.47195191  0.07323540  0.05492066
   0.44479243  0.31746708  0.03507629
   0.64526688  0.38748882  0.17719908
   0.09848820  0.15508075  0.11292411
   0.79063616  0.09387950  0.49423919
   0.82336406  0.31023851  0.68526932
   0.66145300  0.98654037  0.94895901
   0.59837395  0.29387764  0.70905569
   0.86557650  0.18305590  0.80372025
   0.75947446  0.30970373  0.88117361
   0.47563091  0.21936832  0.36687765
   0.24329902  0.02346143  0.71625797
   0.33261093  0.07886335  0.31713447
   0.99655674  0.13016708  0.61859805
   0.40147617  0.98221739  0.48181389
   0.94401114  0.27726646  0.43595982
   0.38861775  0.41930994  0.40304061
   0.01964217  0.23370807  0.26775901
   0.18535223  0.27661366  0.31066520
   0.00567319  0.37876335  0.18894190
   0.13650748  0.45086025  0.29150277
   0.27925977  0.49364410  0.19244623
   0.78470833  0.60588944  0.30313295
   0.10384509  0.51722360  0.06781036
   0.82342646  0.51379814  0.13973326
   0.11352120  0.71657143  0.28785841
   0.93100110  0.66331677  0.04540647
   0.08482235  0.42494907  0.44186593
   0.42918288  0.02623447  0.76056748
   0.37950885  0.93065217  0.93428049
   0.39582912  0.86350311  0.67558308
   0.09806577  0.86570807  0.72014220
   0.23044435  0.84854037  0.85011799
   0.31398130  0.75243478  0.74587679
   0.04496820  0.81653416  0.47735067
   0.85674715  0.93754037  0.51126772
   0.91346094  0.77164596  0.28490627
   0.88045225  0.75413665  0.53910881
   0.78408434  0.78598758  0.40541986
   0.74724440  0.12160621  0.67910811
   0.00473718  0.31715714  0.86265957
   0.38935530  0.16047081  0.86475389
   0.12049358  0.15772236  0.84127192
   0.25542488  0.34455528  0.78250915
   0.12442405  0.86165839  0.07413107
   0.21386325  0.44936460  0.95462098
   0.59361608  0.42843106  0.38888994
   0.47644958  0.54625839  0.12713019
   0.70722838  0.22101615  0.33744878
   0.51878057  0.58497702  0.30376429
   0.42686853  0.72427950  0.25790291
   0.75310984  0.41702981  0.35907447
   0.81232581  0.03986963  0.27492415
   0.50026825  0.89748447  0.13441039
   0.66235153  0.66709317  0.39708641
   0.68331736  0.94954037  0.34160515
   0.48035633  0.02284143  0.25023916
   0.53681804  0.93931056  0.37140175
   0.39897213  0.24002298  0.73575221
   0.79608353  0.54689565  0.58553943
   0.57244746  0.06727267  0.71655629
   0.19970820  0.17705901  0.64172691
   0.57192581  0.09831180  0.47370875
   0.62498120  0.17884286  0.88016907
   0.69446793  0.91860248  0.57411259
   0.63515212  0.69291925  0.59791967
   0.35136411  0.29666522  0.22240964
   0.22059727  0.94896894  0.53154916
   0.93098238  0.55955342  0.38017476
   0.88515084  0.43248137  0.73015720
   0.53595133  0.32930497  0.56215365
   0.10029962  0.60021242  0.52582752
   0.59865225  0.10963230  0.24473791
   0.79336297  0.01016280  0.85730200
   0.90807597  0.83260870  0.11766373
   0.33333849  0.54587205  0.05460456
   0.82922326  0.26078509  0.17346766
   0.67665946  0.48033851  0.99093676
   0.27517268  0.66240994  0.26444097
   0.51659788  0.40752733  0.84701304
   0.67845653  0.04727292  0.58079189
   0.64217193  0.88239752  0.46221007
   0.60463187  0.85268323  0.65140097
   0.78612477  0.86717391  0.64115462
   0.68835914  0.68010559  0.70610294
   0.73064022  0.73593168  0.28692570
   0.52020013  0.96496273  0.63861587
   0.49724568  0.70066460  0.42049654
   0.43189034  0.39245839  0.17938777
   0.33583629  0.28421988  0.35082017
   0.11850932  0.14689752  0.25630843
   0.23513046  0.34701988  0.17952354
   0.25105388  0.98063975  0.41803815
   0.27685307  0.05745118  0.56668505
   0.28230231  0.85034161  0.57287122
   0.08456964  0.94032298  0.52430548
   0.91459035  0.43980621  0.43096754
   0.65696656  0.53507516  0.30931425
   0.07242194  0.58457950  0.39299639
   0.67549885  0.31259130  0.44686368
   0.87500488  0.39928261  0.85760641
   0.01467982  0.43357764  0.77430233
   0.88281091  0.55966087  0.70666914
   0.67702761  0.49805217  0.54304540
   0.56006328  0.58216894  0.59367014
   0.49171781  0.44252857  0.52529298
   0.42320762  0.23970559  0.57880168
   0.57152459  0.26910807  0.49338076
   0.02713870  0.69733540  0.56781684
   0.34829474  0.64704969  0.60547019
   0.06327623  0.49325155  0.57431837
   0.17775461  0.71226708  0.76297839
   0.45518112  0.07180000  0.38999859
   0.68429077  0.10317143  0.15878367
   0.67511198  0.08476087  0.36009241
   0.58558979  0.23593043  0.26210251
   0.75386486  0.09840994  0.93210094
   0.68503955  0.00226702  0.79434450
   0.79848587  0.89072671  0.89194354
   0.87390667  0.03949870  0.76112759
   0.83029027  0.94422981  0.15118140
   0.92354451  0.56684534  0.25260440
   0.97867963  0.89272050  0.02292704
   0.84220211  0.77749068  0.06630171
   0.36981965  0.57874099  0.28789859
   0.44574401  0.57254099  0.98614539
   0.24999997  0.60457205  0.98133576
   0.32847455  0.40533416  0.00607490
   0.84617688  0.19618758  0.28244666
   0.72678400  0.22649752  0.09190967
   0.95048185  0.26387888  0.11811974
   0.82828729  0.36979627  0.21893392
   0.63231924  0.50953230  0.09881727
   0.60837952  0.38088509  0.94082525
   0.76089714  0.42725839  0.99250142
   0.73035942  0.56069627  0.91902361
   0.17004905  0.59265093  0.21403966
   0.28683492  0.76876398  0.17280223
   0.44018058  0.78084472  0.36044796
   0.25440279  0.69713665  0.36262691
   0.50773233  0.28893416  0.81407009
   0.69905420  0.42742609  0.64007093
   0.50072064  0.09723478  0.86339015
   0.56427329  0.47454783  0.75427234
   0.52781085  0.69445963  0.16853383
   0.23475357  0.89119876  0.99318329
   0.43583454  0.73157143  0.65429893
   0.98652933  0.60443292  0.91750157
   0.24810306  0.47206957  0.80429253
   0.39152364  0.18407081  0.99776157
   0.71141530  0.24998634  0.75133177
   0.26109501  0.15854596  0.77083209
   0.05071015  0.33877019  0.33299713
   0.96868966  0.50690683  0.13241287
   0.34426630  0.90844720  0.78068271
   0.89718123  0.82534783  0.40204216
   0.99849108  0.22018634  0.79855141
   0.53593074  0.44744845  0.25377333
   0.58255162  0.91423602  0.24099005
   0.46748794  0.14209565  0.64260360
   0.52173638  0.94007453  0.00813638
   0.37120177  0.03239584  0.15612924
   0.24619929  0.44431988  0.44625122
   0.55153842  0.78214907  0.89510329
   0.39368138  0.63522360  0.78197340
   0.15897148  0.15766708  0.98811795
   0.86196364  0.21394099  0.56331953
   0.07775575  0.23488447  0.57740323
   0.07623323  0.72854037  0.06265979
   0.07407862  0.86101242  0.27126700
   0.09904105  0.93226087  0.76675304
   0.94484728  0.79419255  0.76876212
   0.06918472  0.43645031  0.95829822
   0.76267549  0.67200000  0.49983358
   0.90878731  0.00396843  0.38041098
   0.25144449  0.38428571  0.61748392
