       N       E                     dE             d eps       ncg     rms          rms(c)
RMM:   1    -0.383181102105E+04   -0.38318E+04   -0.47035E+05   592   0.130E+03
RMM:   2     0.237875942547E+04    0.62106E+04   -0.73733E+04   592   0.251E+02
RMM:   3     0.789734102293E+03   -0.15890E+04   -0.23407E+04   592   0.135E+02
RMM:   4    -0.355113284796E+02   -0.82525E+03   -0.82763E+03   592   0.974E+01
RMM:   5    -0.394251694082E+03   -0.35874E+03   -0.32782E+03   592   0.633E+01
RMM:   6    -0.546301064243E+03   -0.15205E+03   -0.13912E+03   592   0.466E+01
RMM:   7    -0.618834595540E+03   -0.72534E+02   -0.69279E+02   592   0.359E+01
RMM:   8    -0.661046646610E+03   -0.42212E+02   -0.39757E+02   592   0.307E+01
RMM:   9    -0.772481892805E+03   -0.11144E+03   -0.11068E+03  2143   0.268E+01
RMM:  10    -0.830289464013E+03   -0.57808E+02   -0.56984E+02  2137   0.174E+01
RMM:  11    -0.842566868518E+03   -0.12277E+02   -0.12623E+02  2059   0.106E+01
RMM:  12    -0.850246525843E+03   -0.76797E+01   -0.76805E+01  2041   0.800E+00    0.716E+01
RMM:  13    -0.809079775156E+03    0.41167E+02   -0.10085E+02  1580   0.846E+00    0.475E+01
RMM:  14    -0.806492194896E+03    0.25876E+01   -0.75901E+01  1671   0.718E+00    0.182E+01
RMM:  15    -0.807587936535E+03   -0.10957E+01   -0.27266E+01  1845   0.453E+00    0.798E+00
RMM:  16    -0.806340166469E+03    0.12478E+01   -0.62398E+00  1993   0.290E+00    0.464E+00
RMM:  17    -0.805692405417E+03    0.64776E+00   -0.59043E+00  1921   0.229E+00    0.252E+00
RMM:  18    -0.805844376378E+03   -0.15197E+00   -0.23133E+00  1949   0.170E+00    0.186E+00
RMM:  19    -0.806009757443E+03   -0.16538E+00   -0.16563E+00  1938   0.142E+00    0.197E+00
RMM:  20    -0.806053505216E+03   -0.43748E-01   -0.10259E+00  2041   0.112E+00    0.773E-01
RMM:  21    -0.806121525828E+03   -0.68021E-01   -0.61280E-01  2037   0.919E-01    0.858E-01
RMM:  22    -0.806154718090E+03   -0.33192E-01   -0.44804E-01  2009   0.773E-01    0.253E-01
RMM:  23    -0.806192184787E+03   -0.37467E-01   -0.37757E-01  2040   0.644E-01    0.346E-01
RMM:  24    -0.806212373714E+03   -0.20189E-01   -0.20984E-01  2007   0.516E-01    0.408E-01
RMM:  25    -0.806222928395E+03   -0.10555E-01   -0.14590E-01  1952   0.432E-01    0.461E-01
RMM:  26    -0.806231941357E+03   -0.90130E-02   -0.11072E-01  1954   0.363E-01    0.539E-01
RMM:  27    -0.806236949230E+03   -0.50079E-02   -0.71637E-02  1955   0.302E-01    0.605E-01
RMM:  28    -0.806240654834E+03   -0.37056E-02   -0.49263E-02  1946   0.252E-01    0.612E-01
RMM:  29    -0.806238853301E+03    0.18015E-02   -0.43965E-02  1937   0.235E-01    0.924E-01
RMM:  30    -0.806240655023E+03   -0.18017E-02   -0.28029E-02  2037   0.188E-01    0.876E-01
RMM:  31    -0.806242722943E+03   -0.20679E-02   -0.26152E-02  1950   0.157E-01    0.855E-01
RMM:  32    -0.806242781784E+03   -0.58841E-04   -0.11226E-02  1908   0.121E-01    0.864E-01
RMM:  33    -0.806243583637E+03   -0.80185E-03   -0.95506E-03  1982   0.103E-01    0.839E-01
RMM:  34    -0.806243840976E+03   -0.25734E-03   -0.58335E-03  1981   0.854E-02    0.838E-01
RMM:  35    -0.806244940816E+03   -0.10998E-02   -0.39254E-03  2027   0.731E-02    0.787E-01
RMM:  36    -0.806246369928E+03   -0.14291E-02   -0.30026E-03  2042   0.635E-02    0.719E-01
RMM:  37    -0.806247633278E+03   -0.12633E-02   -0.22123E-03  2039   0.537E-02    0.658E-01
RMM:  38    -0.806249794714E+03   -0.21614E-02   -0.18961E-03  1896   0.520E-02    0.536E-01
RMM:  39    -0.806251176025E+03   -0.13813E-02   -0.14718E-03  1877   0.442E-02    0.439E-01
RMM:  40    -0.806253094716E+03   -0.19187E-02   -0.19326E-03  1714   0.545E-02    0.250E-01
RMM:  41    -0.806253584312E+03   -0.48960E-03   -0.10322E-03  1935   0.339E-02    0.175E-01
RMM:  42    -0.806253879559E+03   -0.29525E-03   -0.59762E-04  1838   0.283E-02    0.108E-01
RMM:  43    -0.806253989404E+03   -0.10984E-03   -0.38714E-04  1988   0.218E-02    0.687E-02
RMM:  44    -0.806254033716E+03   -0.44311E-04   -0.24509E-04  2010   0.171E-02    0.448E-02
RMM:  45    -0.806254050876E+03   -0.17160E-04   -0.18168E-04  1981   0.146E-02    0.243E-02
RMM:  46    -0.806254059864E+03   -0.89883E-05   -0.13154E-04  1729   0.117E-02    0.166E-02
RMM:  47    -0.806254066734E+03   -0.68701E-05   -0.92313E-05  1379   0.101E-02    0.138E-02
RMM:  48    -0.806254071909E+03   -0.51754E-05   -0.67111E-05  1215   0.886E-03    0.126E-02
RMM:  49    -0.806254076804E+03   -0.48944E-05   -0.53554E-05  1245   0.814E-03    0.127E-02
RMM:  50    -0.806254079619E+03   -0.28149E-05   -0.41406E-05  1149   0.758E-03    0.122E-02
RMM:  51    -0.806254082253E+03   -0.26340E-05   -0.31609E-05  1054   0.716E-03    0.125E-02
RMM:  52    -0.806254083575E+03   -0.13228E-05   -0.28876E-05  1222   0.688E-03    0.116E-02
RMM:  53    -0.806254085562E+03   -0.19867E-05   -0.25743E-05  1259   0.652E-03    0.112E-02
RMM:  54    -0.806254087016E+03   -0.14537E-05   -0.18410E-05  1102   0.615E-03    0.116E-02
RMM:  55    -0.806254087969E+03   -0.95329E-06   -0.14620E-05  1074   0.598E-03    0.117E-02
RMM:  56    -0.806254089259E+03   -0.12896E-05   -0.15803E-05  1246   0.584E-03    0.118E-02
RMM:  57    -0.806254090295E+03   -0.10367E-05   -0.12304E-05  1139   0.562E-03    0.120E-02
RMM:  58    -0.806254090575E+03   -0.27956E-06   -0.95391E-06  1075   0.545E-03
   1 F= -.80625409E+03 E0= -.80625390E+03  d E =-.806254E+03
