 vasp.5.4.4.18Apr17-6-g9f103f2a35 (build Jan 22 2020 12:49:05) complex          
  
 executed on Bebop BDW IPS19.0.5  date 2022.10.04  13:53:14
 running on   64 total cores
 distrk:  each k-point on   64 cores,    1 groups
 distr:  one band on NCORES_PER_BAND=   8 cores,    8 groups


--------------------------------------------------------------------------------------------------------


 INCAR:
 POTCAR:    PAW_PBE Li_sv 10Sep2004               
 POTCAR:    PAW_PBE P 06Sep2000                   
 POTCAR:    PAW_PBE S 06Sep2000                   
 POTCAR:    PAW_PBE Cl 06Sep2000                  
 POTCAR:    PAW_PBE Li_sv 10Sep2004               
   VRHFIN =Li: 1s2s2p                                                           
   LEXCH  = PE                                                                  
   EATOM  =   202.7858 eV,   14.9043 Ry                                         
                                                                                
   TITEL  = PAW_PBE Li_sv 10Sep2004                                             
   LULTRA =        F    use ultrasoft PP ?                                      
   IUNSCR =        0    unscreen: 0-lin 1-nonlin 2-no                           
   RPACOR =    0.000    partial core radius                                     
   POMASS =    7.010; ZVAL   =    3.000    mass and valenz                      
   RCORE  =    1.700    outmost cutoff radius                                   
   RWIGS  =    2.050; RWIGS  =    1.085    wigner-seitz radius (au A)           
   ENMAX  =  499.034; ENMIN  =  374.276 eV                                      
   ICORE  =        2    local potential                                         
   LCOR   =        T    correct aug charges                                     
   LPAW   =        T    paw PP                                                  
   EAUG   =  628.945                                                            
   RMAX   =    1.732    core radius for proj-oper                               
   RAUG   =    1.300    factor for augmentation sphere                          
   RDEP   =    1.728    radius for radial grids                                 
   RDEPT  =    1.329    core radius for aug-charge                              
                                                                                
   Atomic configuration                                                         
    4 entries                                                                   
     n  l   j            E        occ.                                          
     1  0  0.50       -51.8549   2.0000                                         
     2  0  0.50        -2.8742   1.0000                                         
     2  1  0.50        -1.3606   0.0000                                         
     3  2  1.50        -1.3606   0.0000                                         
   Description                                                                  
     l       E           TYP  RCUT    TYP  RCUT                                 
     0    -51.8548813     23  1.400                                             
     0     -2.8742052     23  1.700                                             
     1     -1.3605826     23  1.400                                             
     2     -1.3605826     23  1.400                                             
  local pseudopotential read in
  atomic valenz-charges read in
  non local Contribution for L=           0  read in
    real space projection operators read in
  non local Contribution for L=           0  read in
    real space projection operators read in
  non local Contribution for L=           1  read in
    real space projection operators read in
    PAW grid and wavefunctions read in
 
   number of l-projection  operators is LMAX  =           3
   number of lm-projection operators is LMMAX =           5
 
 POTCAR:    PAW_PBE P 06Sep2000                   
   VRHFIN =P : s2p3                                                             
   LEXCH  = PE                                                                  
   EATOM  =   176.0430 eV,   12.9388 Ry                                         
                                                                                
   TITEL  = PAW_PBE P 06Sep2000                                                 
   LULTRA =        F    use ultrasoft PP ?                                      
   IUNSCR =        1    unscreen: 0-lin 1-nonlin 2-no                           
   RPACOR =    1.500    partial core radius                                     
   POMASS =   30.974; ZVAL   =    5.000    mass and valenz                      
   RCORE  =    1.900    outmost cutoff radius                                   
   RWIGS  =    2.330; RWIGS  =    1.233    wigner-seitz radius (au A)           
   ENMAX  =  255.040; ENMIN  =  191.280 eV                                      
   ICORE  =        2    local potential                                         
   LCOR   =        T    correct aug charges                                     
   LPAW   =        T    paw PP                                                  
   EAUG   =  342.924                                                            
   DEXC   =    0.000                                                            
   RMAX   =    1.935    core radius for proj-oper                               
   RAUG   =    1.300    factor for augmentation sphere                          
   RDEP   =    1.931    radius for radial grids                                 
   RDEPT  =    1.794    core radius for aug-charge                              
                                                                                
   Atomic configuration                                                         
    6 entries                                                                   
     n  l   j            E        occ.                                          
     1  0  0.50     -2084.0982   2.0000                                         
     2  0  0.50      -173.9859   2.0000                                         
     2  1  1.50      -124.4865   6.0000                                         
     3  0  0.50       -13.9692   2.0000                                         
     3  1  0.50        -5.5067   3.0000                                         
     3  2  1.50        -5.4423   0.0000                                         
   Description                                                                  
     l       E           TYP  RCUT    TYP  RCUT                                 
     0    -13.9691527     23  1.900                                             
     0    -11.7794650     23  1.900                                             
     1     -5.5066937     23  1.900                                             
     1     -0.2556953     23  1.900                                             
     2     -5.4423304     23  1.900                                             
  local pseudopotential read in
  partial core-charges read in
  partial kinetic energy density read in
  atomic valenz-charges read in
  non local Contribution for L=           0  read in
    real space projection operators read in
  non local Contribution for L=           0  read in
    real space projection operators read in
  non local Contribution for L=           1  read in
    real space projection operators read in
  non local Contribution for L=           1  read in
    real space projection operators read in
    PAW grid and wavefunctions read in
 
   number of l-projection  operators is LMAX  =           4
   number of lm-projection operators is LMMAX =           8
 
 POTCAR:    PAW_PBE S 06Sep2000                   
   VRHFIN =S : s2p4                                                             
   LEXCH  = PE                                                                  
   EATOM  =   276.8230 eV,   20.3459 Ry                                         
                                                                                
   TITEL  = PAW_PBE S 06Sep2000                                                 
   LULTRA =        F    use ultrasoft PP ?                                      
   IUNSCR =        1    unscreen: 0-lin 1-nonlin 2-no                           
   RPACOR =    1.500    partial core radius                                     
   POMASS =   32.066; ZVAL   =    6.000    mass and valenz                      
   RCORE  =    1.900    outmost cutoff radius                                   
   RWIGS  =    2.200; RWIGS  =    1.164    wigner-seitz radius (au A)           
   ENMAX  =  258.689; ENMIN  =  194.016 eV                                      
   ICORE  =        2    local potential                                         
   LCOR   =        T    correct aug charges                                     
   LPAW   =        T    paw PP                                                  
   EAUG   =  335.092                                                            
   DEXC   =    0.000                                                            
   RMAX   =    1.942    core radius for proj-oper                               
   RAUG   =    1.300    factor for augmentation sphere                          
   RDEP   =    1.954    radius for radial grids                                 
   RDEPT  =    1.744    core radius for aug-charge                              
                                                                                
   Atomic configuration                                                         
    6 entries                                                                   
     n  l   j            E        occ.                                          
     1  0  0.50     -2405.8406   2.0000                                         
     2  0  0.50      -211.7007   2.0000                                         
     2  1  1.50      -156.4958   6.0000                                         
     3  0  0.50       -17.2562   2.0000                                         
     3  1  0.50        -7.0085   4.0000                                         
     3  2  1.50        -6.8029   0.0000                                         
   Description                                                                  
     l       E           TYP  RCUT    TYP  RCUT                                 
     0    -17.2561641     23  1.900                                             
     0    -15.8743224     23  1.900                                             
     1     -7.0085400     23  1.900                                             
     1     -2.7779785     23  1.900                                             
     2     -6.8029130     23  1.900                                             
  local pseudopotential read in
  partial core-charges read in
  partial kinetic energy density read in
  atomic valenz-charges read in
  non local Contribution for L=           0  read in
    real space projection operators read in
  non local Contribution for L=           0  read in
    real space projection operators read in
  non local Contribution for L=           1  read in
    real space projection operators read in
  non local Contribution for L=           1  read in
    real space projection operators read in
    PAW grid and wavefunctions read in
 
   number of l-projection  operators is LMAX  =           4
   number of lm-projection operators is LMMAX =           8
 
 POTCAR:    PAW_PBE Cl 06Sep2000                  
   VRHFIN =Cl: s2p5                                                             
   LEXCH  = PE                                                                  
   EATOM  =   409.7259 eV,   30.1140 Ry                                         
                                                                                
   TITEL  = PAW_PBE Cl 06Sep2000                                                
   LULTRA =        F    use ultrasoft PP ?                                      
   IUNSCR =        1    unscreen: 0-lin 1-nonlin 2-no                           
   RPACOR =    1.500    partial core radius                                     
   POMASS =   35.453; ZVAL   =    7.000    mass and valenz                      
   RCORE  =    1.900    outmost cutoff radius                                   
   RWIGS  =    2.100; RWIGS  =    1.111    wigner-seitz radius (au A)           
   ENMAX  =  262.472; ENMIN  =  196.854 eV                                      
   ICORE  =        2    local potential                                         
   LCOR   =        T    correct aug charges                                     
   LPAW   =        T    paw PP                                                  
   EAUG   =  356.192                                                            
   DEXC   =    0.000                                                            
   RMAX   =    1.945    core radius for proj-oper                               
   RAUG   =    1.300    factor for augmentation sphere                          
   RDEP   =    2.020    radius for radial grids                                 
   RDEPT  =    1.678    core radius for aug-charge                              
                                                                                
   Atomic configuration                                                         
    6 entries                                                                   
     n  l   j            E        occ.                                          
     1  0  0.50     -2751.1850   2.0000                                         
     2  0  0.50      -252.6861   2.0000                                         
     2  1  1.50      -191.6157   6.0000                                         
     3  0  0.50       -20.6916   2.0000                                         
     3  1  0.50        -8.5949   5.0000                                         
     3  2  1.50        -8.1635   0.0000                                         
   Description                                                                  
     l       E           TYP  RCUT    TYP  RCUT                                 
     0    -20.6915656     23  1.900                                             
     0    -22.0521482     23  1.900                                             
     1     -8.5948577     23  1.900                                             
     1     -5.3847331     23  1.900                                             
     2     -8.1634956     23  1.900                                             
  local pseudopotential read in
  partial core-charges read in
  partial kinetic energy density read in
  atomic valenz-charges read in
  non local Contribution for L=           0  read in
    real space projection operators read in
  non local Contribution for L=           0  read in
    real space projection operators read in
  non local Contribution for L=           1  read in
    real space projection operators read in
  non local Contribution for L=           1  read in
    real space projection operators read in
    PAW grid and wavefunctions read in
 
   number of l-projection  operators is LMAX  =           4
   number of lm-projection operators is LMMAX =           8
 

 ----------------------------------------------------------------------------- 
|                                                                             |
|  ADVICE TO THIS USER RUNNING 'VASP/VAMP'   (HEAR YOUR MASTER'S VOICE ...):  |
|                                                                             |
|      You have a (more or less) 'large supercell' and for larger cells       |
|      it might be more efficient to use real space projection opertators     |
|      So try LREAL= Auto  in the INCAR   file.                               |
|      Mind:          For very  accurate calculation you might also keep the  |
|      reciprocal projection scheme          (i.e. LREAL=.FALSE.)             |
|                                                                             |
 ----------------------------------------------------------------------------- 

  PAW_PBE Li_sv 10Sep2004               :
 energy of atom  1       EATOM= -202.7858
 kinetic energy error for atom=    0.0143 (will be added to EATOM!!)
  PAW_PBE P 06Sep2000                   :
 energy of atom  2       EATOM= -176.0430
 kinetic energy error for atom=    0.0013 (will be added to EATOM!!)
  PAW_PBE S 06Sep2000                   :
 energy of atom  3       EATOM= -276.8230
 kinetic energy error for atom=    0.0020 (will be added to EATOM!!)
  PAW_PBE Cl 06Sep2000                  :
 energy of atom  4       EATOM= -409.7259
 kinetic energy error for atom=    0.0030 (will be added to EATOM!!)
 
 
 POSCAR: New POSCAR file                         
  positions in cartesian coordinates
  No initial velocities read in
 exchange correlation table for  LEXCH =        8
   RHO(1)=    0.500       N(1)  =     2000
   RHO(2)=  100.500       N(2)  =     4000
 


--------------------------------------------------------------------------------------------------------


 ion  position               nearest neighbor table
   1  0.706  0.874  0.180- 191 2.22 153 2.29
   2  0.576  0.646  0.048-  80 2.16 177 2.17 158 2.37 165 2.59
   3  0.691  0.620  0.210- 118 2.31 130 2.45 165 2.59
   4  0.826  0.933  0.015- 151 2.22 153 2.42 107 2.65
   5  0.580  0.765  0.280- 177 2.23 191 2.40 118 2.47 171 2.68
   6  0.930  0.750  0.964- 156 2.30  59 2.35 180 2.48 155 2.63
   7  0.218  0.023  0.024- 178 2.35 198 2.42
   8  0.213  0.870  0.283- 202 2.18 125 2.48 170 2.69
   9  0.112  0.013  0.320- 123 2.23 125 2.62
  10  0.237  0.746  0.037- 178 2.28 170 2.49 159 2.50 201 2.55
  11  0.080  0.708  0.891- 180 2.27 144 2.50
  12  0.313  0.824  0.415- 171 2.32 172 2.42 127 2.56 125 2.59
  13  0.390  0.496  0.617- 138 2.40 142 2.54
  14  0.528  0.800  0.501- 171 2.42 120 2.47 114 2.54
  15  0.707  0.870  0.759- 150 2.14 115 2.44 151 2.70
  16  0.359  0.616  0.439- 120 2.45 142 2.56 157 2.62
  17  0.712  0.527  0.763- 174 2.43 117 2.50 176 2.52 135 2.57 168 2.57
  18  0.178  0.735  0.617- 127 2.41 141 2.51 144 2.61
  19  0.960  0.919  0.862- 204 2.35 151 2.49 152 2.68
  20  0.924  0.480  0.953- 133 2.37 180 2.40  24 2.45 205 2.54 167 2.56
  21  0.179  0.492  0.680- 208 2.13 181 2.19 143 2.23
  22  0.449  0.879  0.868- 187 2.26 196 2.38  62 2.47
  23  0.005  0.625  0.725- 135 2.53
  24  0.870  0.562  0.839- 135 1.96 180 2.23  20 2.45 133 2.47
  25  0.346  0.445  0.876- 160 2.34 181 2.39  78 2.40
  26  0.066  0.518  0.854- 205 2.14 134 2.17 180 2.29 181 2.69
  27  0.257  0.603  0.847- 197 2.33 181 2.34 159 2.36 144 2.47
  28  0.410  0.680  0.932- 158 2.13 197 2.22
  29  0.042  0.309  0.697- 134 2.26 200 2.26 189 2.32
  30  0.552  0.676  0.795- 196 1.97 117 2.39
  31  0.281  0.305  0.065- 160 2.13 124 2.22 182 2.66  99 2.76
  32  0.391  0.180  0.146- 194 2.26 182 2.28  99 2.29
  33  0.430  0.056  0.035- 194 2.15 182 2.25 193 2.58
  34  0.457  0.300  0.036- 182 2.35
  35  0.667  0.354  0.216- 164 2.34 148 2.38
  36  0.067  0.162  0.125- 123 2.24 163 2.43
  37  0.820  0.096  0.485- 207 2.28 199 2.40 113 2.55
  38  0.792  0.311  0.644- 199 2.33 174 2.51 183 2.52
  39  0.616  0.027  0.916- 175 2.23 150 2.44 193 2.57
  40  0.576  0.281  0.684- 103 2.16 173 2.34 183 2.64
  41  0.858  0.170  0.796- 152 2.33 189 2.48 183 2.59
  42  0.747  0.316  0.874- 133 2.26 183 2.39
  43  0.491  0.237  0.363- 148 2.23 122 2.31 140 2.50 145 2.57
  44  0.228  0.975  0.711- 203 2.24 187 2.48 126 2.59
  45  0.331  0.055  0.328- 125 2.13 145 2.43  89 2.47
  46  0.967  0.149  0.668- 189 2.16 199 2.58
  47  0.402  0.024  0.519- 119 2.41 145 2.44 126 2.44 192 2.67
  48  0.964  0.316  0.434- 185 2.27 129 2.42  50 2.59
  49  0.357  0.406  0.413- 195 2.29 122 2.37 138 2.66
  50  0.006  0.239  0.302- 185 2.26 123 2.46  48 2.59 161 2.59
  51  0.184  0.256  0.307- 124 2.41 123 2.49
  52  0.963  0.390  0.231- 185 2.34 164 2.45
  53  0.137  0.483  0.322- 195 2.14 185 2.32 131 2.37 169 2.46
  54  0.264  0.467  0.183- 124 2.24 169 2.55
  55  0.783  0.603  0.340- 130 2.34 154 2.38 118 2.46  87 2.52 101 2.67
  56  0.137  0.595  0.081- 201 2.12 159 2.31 169 2.31
  57  0.801  0.462  0.123- 167 1.94 164 2.01 165 2.65
  58  0.089  0.713  0.271- 202 2.21 169 2.53
  59  0.948  0.644  0.061- 186 2.32   6 2.35 201 2.42 156 2.47 180 2.57
  60  0.115  0.404  0.481- 195 2.27 143 2.55 185 2.59
  61  0.382  0.043  0.740- 187 2.49
  62  0.325  0.951  0.923- 178 2.15  22 2.47 187 2.53  65 2.53
  63  0.375  0.892  0.655- 187 2.11 119 2.33 127 2.46
  64  0.091  0.829  0.734- 203 2.18 204 2.25 144 2.43
  65  0.233  0.841  0.861- 178 2.34 187 2.40  62 2.53 144 2.63
  66  0.316  0.734  0.741- 144 2.27 197 2.37
  67  0.065  0.804  0.449- 128 2.64
  68  0.917  0.932  0.508- 207 2.39 188 2.68
  69  0.891  0.763  0.234- 107 2.31
  70  0.904  0.726  0.513- 206 2.26 188 2.35 141 2.38
  71  0.769  0.788  0.418- 188 2.24 206 2.27 114 2.30 118 2.41
  72  0.719  0.100  0.711- 150 2.19 183 2.31 113 2.57
  73  0.983  0.324  0.882- 205 2.55 133 2.62 189 2.63
  74  0.385  0.171  0.877- 182 2.17 175 2.36 184 2.69
  75  0.123  0.155  0.852- 189 2.26 198 2.27 184 2.43
  76  0.216  0.323  0.771- 181 2.42 184 2.59
  77  0.123  0.865  0.087- 178 2.41 155 2.43 201 2.59
  78  0.214  0.458  0.943- 205 2.28 181 2.28 160 2.36  25 2.40 159 2.46
  79  0.563  0.427  0.399- 138 2.34 130 2.56 190 2.59
  80  0.501  0.560  0.116-   2 2.16 158 2.26 165 2.45 177 2.45 108 2.69
  81  0.718  0.235  0.331- 132 2.21 148 2.28 161 2.38 147 2.64
  82  0.509  0.576  0.307- 157 2.29 120 2.43 130 2.45 190 2.49
  83  0.421  0.732  0.233- 177 2.35 170 2.39 171 2.61
  84  0.754  0.434  0.359- 130 2.33 132 2.53 129 2.59 164 2.60
  85  0.799  0.065  0.254- 161 2.25 146 2.34 147 2.50 153 2.59
  86  0.490  0.870  0.137- 193 2.31 191 2.53
  87  0.650  0.648  0.410- 130 2.26 206 2.45 120 2.52  55 2.52
  88  0.697  0.939  0.332- 191 2.22 147 2.28 114 2.31  90 2.38
  89  0.470  0.034  0.266- 145 2.28 194 2.31 105 2.46  45 2.47
  90  0.557  0.947  0.379- 191 2.30 114 2.34  88 2.38 145 2.68
  91  0.374  0.233  0.708- 139 2.17 173 2.49 184 2.49 192 2.49
  92  0.815  0.510  0.564- 136 2.34 174 2.62
  93  0.553  0.066  0.730- 175 2.27 150 2.33 119 2.48 192 2.53
  94  0.185  0.162  0.642- 126 2.31 200 2.32 184 2.47
  95  0.594  0.086  0.460- 147 2.23 113 2.33 145 2.35
  96  0.602  0.222  0.836- 173 2.21 183 2.25 175 2.65
  97  0.701  0.934  0.568- 113 1.97 116 2.08 114 2.27 115 2.62
  98  0.637  0.689  0.602- 137 1.94 117 2.01
  99  0.356  0.298  0.216- 124 2.02 122 2.10 121 2.24  32 2.29  31 2.76
 100  0.222  0.952  0.519- 127 2.00 128 2.04 125 2.18 126 2.25
 101  0.942  0.568  0.376- 154 1.87 129 2.07 131 2.07  55 2.67
 102  0.910  0.438  0.728- 134 1.94 135 2.06 133 2.27
 103  0.525  0.333  0.573- 138 2.04  40 2.16 140 2.25 139 2.27
 104  0.102  0.601  0.528- 141 1.96 143 2.07 131 2.20
 105  0.597  0.115  0.237- 146 2.02 148 2.07  89 2.46 147 2.60
 106  0.779  0.011  0.848- 152 1.99 149 2.01 151 2.06 150 2.10
 107  0.915  0.850  0.125- 153 2.05 156 2.06 155 2.15  69 2.31   4 2.65
 108  0.351  0.545  0.045- 159 2.07 160 2.17 158 2.17  80 2.69
 109  0.842  0.251  0.176- 163 2.04 161 2.15 162 2.20 164 2.33
 110  0.676  0.482  0.966- 166 1.96 168 2.00 165 2.34 167 2.48
 111  0.264  0.665  0.266- 172 1.93 170 2.10 169 2.12 157 2.20
 112  0.516  0.400  0.851- 176 2.01 173 2.08 166 2.21
 113  0.689  0.055  0.563-  97 1.97  95 2.33  37 2.55  72 2.57
 114  0.659  0.873  0.451-  97 2.27  71 2.30  88 2.31  90 2.34  14 2.54
 115  0.590  0.867  0.665- 119 2.39  15 2.44  97 2.62
 116  0.802  0.870  0.618-  97 2.08
 117  0.677  0.671  0.717-  98 2.01  30 2.39  17 2.50
 118  0.731  0.735  0.285-   3 2.31  71 2.41  55 2.46   5 2.47
 119  0.492  0.972  0.626-  63 2.33 115 2.39  47 2.41  93 2.48 192 2.67
 120  0.496  0.679  0.414- 171 2.13  82 2.43  16 2.45  14 2.47  87 2.52
 121  0.435  0.406  0.177- 190 1.80  99 2.24
 122  0.355  0.278  0.342-  99 2.10  43 2.31  49 2.37
 123  0.106  0.134  0.253-   9 2.23  36 2.24  50 2.46  51 2.49
 124  0.237  0.330  0.191-  99 2.02  31 2.22  54 2.24  51 2.41
 125  0.252  0.971  0.391-  45 2.13 100 2.18   8 2.48  12 2.59   9 2.62
 126  0.272  0.063  0.586- 100 2.25  94 2.31  47 2.44  44 2.59
 127  0.265  0.844  0.562- 100 2.00  18 2.41  63 2.46  12 2.56
 128  0.095  0.948  0.520- 100 2.04  67 2.64
 129  0.903  0.453  0.418- 101 2.07  48 2.42  84 2.59
 130  0.655  0.535  0.328-  87 2.26  84 2.33  55 2.34   3 2.45  82 2.45  79 2.56
 131  0.068  0.587  0.399- 101 2.07 104 2.20  53 2.37
 132  0.686  0.315  0.436- 140 1.86  81 2.21  84 2.53
 133  0.849  0.410  0.850-  42 2.26 102 2.27  20 2.37  24 2.47  73 2.62
 134  0.027  0.434  0.758- 102 1.94  26 2.17  29 2.26
 135  0.863  0.556  0.720-  24 1.96 102 2.06  23 2.53  17 2.57
 136  0.672  0.507  0.539- 137 1.96 174 2.15  92 2.34
 137  0.586  0.581  0.582-  98 1.94 136 1.96
 138  0.481  0.437  0.517- 103 2.04  79 2.34  13 2.40  49 2.66
 139  0.412  0.248  0.582- 192 2.10  91 2.17 103 2.27
 140  0.593  0.260  0.477- 132 1.86 103 2.25  43 2.50
 141  0.034  0.690  0.574- 104 1.96  70 2.38  18 2.51
 142  0.353  0.648  0.592- 179 2.03  13 2.54  16 2.56
 143  0.069  0.499  0.597- 104 2.07  21 2.23  60 2.55
 144  0.180  0.714  0.775-  66 2.27  64 2.43  27 2.47  11 2.50  18 2.61  65 2.63
 145  0.463  0.084  0.396-  89 2.28  95 2.35  45 2.43  47 2.44  43 2.57  90 2.68
 146  0.691  0.088  0.160- 105 2.02 162 2.28  85 2.34
 147  0.689  0.077  0.361-  95 2.23  88 2.28  85 2.50 105 2.60  81 2.64
 148  0.591  0.240  0.269- 105 2.07  43 2.23  81 2.28  35 2.38
 149  0.769  0.099  0.934- 106 2.01
 150  0.669  0.995  0.781- 106 2.10  15 2.14  72 2.19  93 2.33  39 2.44
 151  0.809  0.894  0.887- 106 2.06   4 2.22  19 2.49  15 2.70
 152  0.875  0.028  0.772- 106 1.99  41 2.33  19 2.68
 153  0.832  0.938  0.163- 107 2.05   1 2.29   4 2.42  85 2.59
 154  0.907  0.569  0.267- 101 1.87  55 2.38
 155  0.989  0.890  0.022- 107 2.15  77 2.43   6 2.63
 156  0.844  0.756  0.075- 107 2.06   6 2.30  59 2.47
 157  0.368  0.578  0.284- 111 2.20  82 2.29  16 2.62
 158  0.467  0.572  0.983-  28 2.13 108 2.17  80 2.26   2 2.37
 159  0.247  0.598  0.990- 108 2.07  56 2.31  27 2.36  78 2.46  10 2.50
 160  0.334  0.415  0.015-  31 2.13 108 2.17  25 2.34  78 2.36
 161  0.853  0.189  0.292- 109 2.15  85 2.25  81 2.38  50 2.59
 162  0.728  0.215  0.110- 109 2.20 146 2.28
 163  0.951  0.259  0.112- 109 2.04  36 2.43
 164  0.810  0.385  0.219-  57 2.01 109 2.33  35 2.34  52 2.45  84 2.60
 165  0.645  0.512  0.103- 110 2.34  80 2.45   3 2.59   2 2.59  57 2.65
 166  0.598  0.389  0.959- 110 1.96 112 2.21
 167  0.799  0.406  0.018-  57 1.94 110 2.48  20 2.56
 168  0.701  0.588  0.907- 110 2.00  17 2.57
 169  0.169  0.588  0.218- 111 2.12  56 2.31  53 2.46  58 2.53  54 2.55
 170  0.284  0.761  0.181- 111 2.10  83 2.39  10 2.49   8 2.69
 171  0.449  0.796  0.376- 120 2.13  12 2.32  14 2.42  83 2.61   5 2.68
 172  0.226  0.710  0.369- 111 1.93  12 2.42
 173  0.487  0.286  0.797- 112 2.08  96 2.21  40 2.34  91 2.49
 174  0.697  0.435  0.647- 136 2.15  17 2.43  38 2.51  92 2.62
 175  0.507  0.090  0.858-  39 2.23  93 2.27  74 2.36  96 2.65
 176  0.562  0.479  0.768- 112 2.01  17 2.52
 177  0.546  0.696  0.167-   2 2.17   5 2.23  83 2.35  80 2.45
 178  0.240  0.881  0.997-  62 2.15  10 2.28  65 2.34   7 2.35  77 2.41
 179  0.439  0.732  0.629- 142 2.03
 180  0.977  0.613  0.910-  24 2.23  11 2.27  26 2.29  20 2.40   6 2.48  59 2.57
 181  0.219  0.469  0.805-  21 2.19  78 2.28  27 2.34  25 2.39  76 2.42  26 2.69
 182  0.375  0.182  0.008-  74 2.17  33 2.25  32 2.28  34 2.35  31 2.66
 183  0.716  0.235  0.756-  96 2.25  72 2.31  42 2.39  38 2.52  41 2.59  40 2.64
 184  0.253  0.167  0.777-  75 2.43  94 2.47  91 2.49  76 2.59  74 2.69
 185  0.055  0.365  0.339-  50 2.26  48 2.27  53 2.32  52 2.34  60 2.59
 186  0.978  0.516  0.118-  59 2.32
 187  0.343  0.899  0.779-  63 2.11  22 2.26  65 2.40  44 2.48  61 2.49  62 2.53
 188  0.905  0.811  0.397-  71 2.24  70 2.35  68 2.68
 189  0.010  0.199  0.782-  46 2.16  75 2.26  29 2.32  41 2.48  73 2.63
 190  0.516  0.433  0.248- 121 1.80  82 2.49  79 2.59
 191  0.592  0.910  0.248-   1 2.22  88 2.22  90 2.30   5 2.40  86 2.53
 192  0.460  0.135  0.625- 139 2.10  91 2.49  93 2.53  47 2.67 119 2.67
 193  0.538  0.939  0.022-  86 2.31  39 2.57  33 2.58
 194  0.380  0.041  0.156-  33 2.15  32 2.26  89 2.31
 195  0.226  0.463  0.417-  53 2.14  60 2.27  49 2.29
 196  0.548  0.769  0.873-  30 1.97  22 2.38
 197  0.394  0.629  0.808-  28 2.22  27 2.33  66 2.37
 198  0.160  0.157  0.986-  75 2.27   7 2.42
 199  0.862  0.213  0.566-  38 2.33  37 2.40  46 2.58
 200  0.090  0.251  0.581-  29 2.26  94 2.32
 201  0.083  0.712  0.057-  56 2.12  59 2.42  10 2.55  77 2.59
 202  0.079  0.849  0.279-   8 2.18  58 2.21
 203  0.107  0.956  0.776-  64 2.18  44 2.24
 204  0.963  0.799  0.781-  64 2.25  19 2.35
 205  0.075  0.431  0.953-  26 2.14  78 2.28  20 2.54  73 2.55
 206  0.777  0.669  0.490-  70 2.26  71 2.27  87 2.45
 207  0.895  0.020  0.393-  37 2.28  68 2.39
 208  0.254  0.396  0.628-  21 2.13
 

IMPORTANT INFORMATION: All symmetrisations will be switched off!
NOSYMM: (Re-)initialisation of all symmetry stuff for point group C_1.

 
 
 KPOINTS: Regular mesh centered at Gamma          

Automatic generation of k-mesh.
Space group operators:
 irot       det(A)        alpha          n_x          n_y          n_z        tau_x        tau_y        tau_z
    1     1.000000     0.000001     1.000000     0.000000     0.000000     0.000000     0.000000     0.000000
 
 Subroutine IBZKPT returns following result:
 ===========================================
 
 Found      1 irreducible k-points:
 
 Following reciprocal coordinates:
            Coordinates               Weight
  0.000000  0.000000  0.000000      1.000000
 
 Following cartesian coordinates:
            Coordinates               Weight
  0.000000  0.000000  0.000000      1.000000
 


--------------------------------------------------------------------------------------------------------




 Dimension of arrays:
   k-points           NKPTS =      1   k-points in BZ     NKDIM =      1   number of bands    NBANDS=    592
   number of dos      NEDOS =    301   number of ions     NIONS =    208
   non local maximal  LDIM  =      4   non local SUM 2l+1 LMDIM =      8
   total plane-waves  NPLWV = 729000
   max r-space proj   IRMAX =      1   max aug-charges    IRDMAX=   5618
   dimension x,y,z NGX =    90 NGY =   90 NGZ =   90
   dimension x,y,z NGXF=   180 NGYF=  180 NGZF=  180
   support grid    NGXF=   180 NGYF=  180 NGZF=  180
   ions per type =              96  16  80  16
   NGX,Y,Z   is equivalent  to a cutoff of   9.34,  9.29,  9.11 a.u.
   NGXF,Y,Z  is equivalent  to a cutoff of  18.67, 18.59, 18.22 a.u.

 SYSTEM =  LPSC                                    
 POSCAR =  New POSCAR file                         

 Startparameter for this run:
   NWRITE =      2    write-flag & timer
   PREC   = normal    normal or accurate (medium, high low for compatibility)
   ISTART =      0    job   : 0-new  1-cont  2-samecut
   ICHARG =      2    charge: 1-file 2-atom 10-const
   ISPIN  =      1    spin polarized calculation?
   LNONCOLLINEAR =      F non collinear calculations
   LSORBIT =      F    spin-orbit coupling
   INIWAV =      1    electr: 0-lowe 1-rand  2-diag
   LASPH  =      F    aspherical Exc in radial PAW
   METAGGA=      F    non-selfconsistent MetaGGA calc.

 Electronic Relaxation 1
   ENCUT  =  500.0 eV  36.75 Ry    6.06 a.u.  29.22 29.35 29.95*2*pi/ulx,y,z
   ENINI  =  500.0     initial cutoff
   ENAUG  =  628.9 eV  augmentation charge cutoff
   NELM   =    100;   NELMIN=  2; NELMDL=-12     # of ELM steps 
   EDIFF  = 0.1E-05   stopping-criterion for ELM
   LREAL  =      F    real-space projection
   NLSPLINE    = F    spline interpolate recip. space projectors
   LCOMPAT=      F    compatible to vasp.4.4
   GGA_COMPAT  = T    GGA compatible to vasp.4.4-vasp.4.6
   LMAXPAW     = -100 max onsite density
   LMAXMIX     =    2 max onsite mixed and CHGCAR
   VOSKOWN=      0    Vosko Wilk Nusair interpolation
   ROPT   =    0.00000   0.00000   0.00000   0.00000
 Ionic relaxation
   EDIFFG = -.1E-01   stopping-criterion for IOM
   NSW    =      1    number of steps for IOM
   NBLOCK =      1;   KBLOCK =      1    inner block; outer block 
   IBRION =      2    ionic relax: 0-MD 1-quasi-New 2-CG
   NFREE  =      1    steps in history (QN), initial steepest desc. (CG)
   ISIF   =      2    stress and relaxation
   IWAVPR =     11    prediction:  0-non 1-charg 2-wave 3-comb
   ISYM   =      0    0-nonsym 1-usesym 2-fastsym
   LCORR  =      T    Harris-Foulkes like correction to forces

   POTIM  = 0.5000    time-step for ionic-motion
   TEIN   =    0.0    initial temperature
   TEBEG  =    0.0;   TEEND  =   0.0 temperature during run
   SMASS  =  -3.00    Nose mass-parameter (am)
   estimated Nose-frequenzy (Omega)   =  0.10E-29 period in steps =****** mass=  -0.587E-26a.u.
   SCALEE = 1.0000    scale energy and forces
   NPACO  =    256;   APACO  = 16.0  distance and # of slots for P.C.
   PSTRESS=    0.0 pullay stress

  Mass of Ions in am
   POMASS =   7.01 30.97 32.07 35.45
  Ionic Valenz
   ZVAL   =   3.00  5.00  6.00  7.00
  Atomic Wigner-Seitz radii
   RWIGS  =  -1.00 -1.00 -1.00 -1.00
  virtual crystal weights 
   VCA    =   1.00  1.00  1.00  1.00
   NELECT =     960.0000    total number of electrons
   NUPDOWN=      -1.0000    fix difference up-down

 DOS related values:
   EMIN   =  10.00;   EMAX   =-10.00  energy-range for DOS
   EFERMI =   0.00
   ISMEAR =     0;   SIGMA  =   0.05  broadening in eV -4-tet -1-fermi 0-gaus

 Electronic relaxation 2 (details)
   IALGO  =     48    algorithm
   LDIAG  =      T    sub-space diagonalisation (order eigenvalues)
   LSUBROT=      F    optimize rotation matrix (better conditioning)
   TURBO    =      0    0=normal 1=particle mesh
   IRESTART =      0    0=no restart 2=restart with 2 vectors
   NREBOOT  =      0    no. of reboots
   NMIN     =      0    reboot dimension
   EREF     =   0.00    reference energy to select bands
   IMIX   =      4    mixing-type and parameters
     AMIX     =   0.40;   BMIX     =  1.00
     AMIX_MAG =   1.60;   BMIX_MAG =  1.00
     AMIN     =   0.10
     WC   =   100.;   INIMIX=   1;  MIXPRE=   1;  MAXMIX= -45

 Intra band minimization:
   WEIMIN = 0.0010     energy-eigenvalue tresh-hold
   EBREAK =  0.42E-09  absolut break condition
   DEPER  =   0.30     relativ break condition  

   TIME   =   0.40     timestep for ELM

  volume/ion in A,a.u.               =      20.38       137.50
  Fermi-wavevector in a.u.,A,eV,Ry     =   0.997951  1.885854 13.550121  0.995906
  Thomas-Fermi vector in A             =   2.130142
 
 Write flags
   LWAVE        =      F    write WAVECAR
   LDOWNSAMPLE  =      F    k-point downsampling of WAVECAR
   LCHARG       =      F    write CHGCAR
   LVTOT        =      F    write LOCPOT, total local potential
   LVHAR        =      F    write LOCPOT, Hartree potential only
   LELF         =      F    write electronic localiz. function (ELF)
   LORBIT       =     11    0 simple, 1 ext, 2 COOP (PROOUT), +10 PAW based schemes


 Dipole corrections
   LMONO  =      F    monopole corrections only (constant potential shift)
   LDIPOL =      F    correct potential (dipole corrections)
   IDIPOL =      0    1-x, 2-y, 3-z, 4-all directions 
   EPSILON=  1.0000000 bulk dielectric constant

 Exchange correlation treatment:
   GGA     =    --    GGA type
   LEXCH   =     8    internal setting for exchange type
   VOSKOWN=      0    Vosko Wilk Nusair interpolation
   LHFCALC =     F    Hartree Fock is set to
   LHFONE  =     F    Hartree Fock one center treatment
   AEXX    =    0.0000 exact exchange contribution

 Linear response parameters
   LEPSILON=     F    determine dielectric tensor
   LRPA    =     F    only Hartree local field effects (RPA)
   LNABLA  =     F    use nabla operator in PAW spheres
   LVEL    =     F    velocity operator in full k-point grid
   LINTERFAST=   F  fast interpolation
   KINTER  =     0    interpolate to denser k-point grid
   CSHIFT  =0.1000    complex shift for real part using Kramers Kronig
   OMEGAMAX=  -1.0    maximum frequency
   DEG_THRESHOLD= 0.2000000E-02 threshold for treating states as degnerate
   RTIME   =   -0.100 relaxation time in fs
  (WPLASMAI=    0.000 imaginary part of plasma frequency in eV, 0.658/RTIME)
   DFIELD  = 0.0000000 0.0000000 0.0000000 field for delta impulse in time
 
 Orbital magnetization related:
   ORBITALMAG=     F  switch on orbital magnetization
   LCHIMAG   =     F  perturbation theory with respect to B field
   DQ        =  0.001000  dq finite difference perturbation B field
   LLRAUG    =     F  two centre corrections for induced B field



--------------------------------------------------------------------------------------------------------


 conjugate gradient relaxation of ions
 charge density and potential will be updated during run
 non-spin polarized calculation
 RMM-DIIS sequential band-by-band
 perform sub-space diagonalisation
    before iterative eigenvector-optimisation
 modified Broyden-mixing scheme, WC =      100.0
 initial mixing is a Kerker type mixing with AMIX =  0.4000 and BMIX =      1.0000
 Hartree-type preconditioning will be used
 using additional bands          112
 reciprocal scheme for non local part
 use partial core corrections
 calculate Harris-corrections to forces 
   (improved forces if not selfconsistent)
 use gradient corrections 
 use of overlap-Matrix (Vanderbilt PP)
 Gauss-broadening in eV      SIGMA  =   0.05


--------------------------------------------------------------------------------------------------------


  energy-cutoff  :      500.00
  volume of cell :     4238.07
      direct lattice vectors                 reciprocal lattice vectors
    16.026082000  0.000000000  0.000000000     0.062398283  0.000000000  0.000000000
     0.000000000 16.100000000  0.000000000     0.000000000  0.062111801  0.000000000
     0.000000000  0.000000000 16.425367000     0.000000000  0.000000000  0.060881440

  length of vectors
    16.026082000 16.100000000 16.425367000     0.062398283  0.062111801  0.060881440


 
 k-points in units of 2pi/SCALE and weight: Regular mesh centered at Gamma          
   0.00000000  0.00000000  0.00000000       1.000
 
 k-points in reciprocal lattice and weights: Regular mesh centered at Gamma          
   0.00000000  0.00000000  0.00000000       1.000
 
 position of ions in fractional coordinates (direct lattice) 
   0.70628617  0.87434161  0.18004042
   0.57597297  0.64648447  0.04779899
   0.69111090  0.62033913  0.21030276
   0.82632174  0.93298137  0.01542279
   0.58014117  0.76483230  0.28016726
   0.93034592  0.74985714  0.96357664
   0.21756160  0.02307280  0.02421255
   0.21292915  0.87042857  0.28320585
   0.11192817  0.01312211  0.31973106
   0.23703485  0.74559627  0.03747113
   0.07992846  0.70796894  0.89119470
   0.31251556  0.82352795  0.41481874
   0.38956246  0.49614286  0.61666202
   0.52810912  0.79985093  0.50138362
   0.70737814  0.86998758  0.75871668
   0.35876142  0.61629938  0.43878837
   0.71177097  0.52723540  0.76281401
   0.17799297  0.73531677  0.61694816
   0.96049053  0.91882609  0.86195943
   0.92386274  0.48043975  0.95317201
   0.17880353  0.49229627  0.67954037
   0.44855817  0.87885093  0.86792581
   0.00498640  0.62489441  0.72456829
   0.86960743  0.56205031  0.83902539
   0.34632607  0.44477764  0.87637616
   0.06624576  0.51795839  0.85444057
   0.25676644  0.60262795  0.84666601
   0.41012707  0.67981988  0.93249667
   0.04231652  0.30934845  0.69735428
   0.55171688  0.67637267  0.79506290
   0.28063129  0.30501863  0.06475837
   0.39055460  0.18039876  0.14596873
   0.42951921  0.05627497  0.03532414
   0.45721343  0.29959876  0.03628004
   0.66729348  0.35441242  0.21576626
   0.06734959  0.16245528  0.12522277
   0.82033775  0.09583975  0.48533040
   0.79158462  0.31072671  0.64418043
   0.61554970  0.02721106  0.91605868
   0.57604285  0.28109379  0.68383251
   0.85819479  0.17042919  0.79580566
   0.74657050  0.31640062  0.87440969
   0.49115498  0.23730745  0.36349934
   0.22842139  0.97524845  0.71126569
   0.33128871  0.05543366  0.32808765
   0.96668044  0.14908509  0.66777808
   0.40248452  0.02405981  0.51898627
   0.96440914  0.31627950  0.43352456
   0.35679026  0.40567081  0.41291071
   0.00647601  0.23885031  0.30150194
   0.18379601  0.25576398  0.30704885
   0.96290534  0.38990932  0.23071570
   0.13656114  0.48304845  0.32226799
   0.26410510  0.46694969  0.18296638
   0.78326069  0.60266460  0.34016287
   0.13747590  0.59485776  0.08097658
   0.80119395  0.46208882  0.12298477
   0.08929381  0.71283851  0.27085909
   0.94829167  0.64444720  0.06093928
   0.11491081  0.40386770  0.48053416
   0.38204722  0.04295540  0.73961818
   0.32538895  0.95131677  0.92324878
   0.37489325  0.89224845  0.65473727
   0.09105719  0.82850932  0.73394403
   0.23284231  0.84060870  0.86099750
   0.31575403  0.73403106  0.74149941
   0.06499468  0.80391925  0.44869682
   0.91676181  0.93163975  0.50843308
   0.89091021  0.76328571  0.23443738
   0.90402632  0.72559006  0.51335900
   0.76878429  0.78824845  0.41750909
   0.71940852  0.09991739  0.71089431
   0.98282288  0.32402547  0.88220251
   0.38547413  0.17095528  0.87697279
   0.12308186  0.15476398  0.85204793
   0.21602722  0.32276770  0.77055813
   0.12279233  0.86475776  0.08724250
   0.21380709  0.45760311  0.94316918
   0.56268026  0.42684286  0.39866933
   0.50095026  0.56017826  0.11639557
   0.71798584  0.23521615  0.33140264
   0.50939026  0.57577764  0.30677792
   0.42063993  0.73226087  0.23295918
   0.75381494  0.43361801  0.35931983
   0.79899753  0.06546894  0.25403512
   0.49049855  0.86988199  0.13682190
   0.65019635  0.64782609  0.40952631
   0.69721969  0.93855901  0.33155971
   0.47016857  0.03442683  0.26598614
   0.55722478  0.94706832  0.37861863
   0.37422434  0.23293602  0.70778327
   0.81517741  0.51016770  0.56446106
   0.55311897  0.06590186  0.72987106
   0.18482559  0.16190807  0.64152600
   0.59394118  0.08555714  0.45973219
   0.60234810  0.22211304  0.83620658
   0.70089495  0.93396894  0.56832885
   0.63656856  0.68887578  0.60244072
   0.35590296  0.29837516  0.21593977
   0.22169736  0.95162112  0.51903193
   0.94177105  0.56754161  0.37624730
   0.90990424  0.43769193  0.72785588
   0.52512149  0.33272609  0.57288035
   0.10210481  0.60096087  0.52756203
   0.59675721  0.11523106  0.23699501
   0.77947311  0.01141584  0.84782885
   0.91504586  0.84960870  0.12463222
   0.35059536  0.54522609  0.04511765
   0.84235810  0.25053602  0.17577811
   0.67579212  0.48232981  0.96607887
   0.26427794  0.66532298  0.26619557
   0.51649617  0.39956273  0.85086074
   0.68870857  0.05535727  0.56348513
   0.65860764  0.87322360  0.45076923
   0.58961261  0.86698758  0.66471574
   0.80150595  0.87016770  0.61781268
   0.67723352  0.67131677  0.71714684
   0.73121428  0.73523602  0.28511753
   0.49213713  0.97219255  0.62566030
   0.49603016  0.67872671  0.41430977
   0.43472197  0.40610497  0.17733181
   0.35491582  0.27774596  0.34198627
   0.10640654  0.13381304  0.25302570
   0.23699117  0.33045901  0.19083409
   0.25188689  0.97086957  0.39126006
   0.27202095  0.06295590  0.58604292
   0.26503920  0.84351553  0.56212260
   0.09453964  0.94785714  0.51970224
   0.90254748  0.45254907  0.41835290
   0.65503846  0.53468944  0.32849616
   0.06758358  0.58737516  0.39885380
   0.68550754  0.31518882  0.43583623
   0.84861041  0.41042857  0.84981967
   0.02676056  0.43447826  0.75807134
   0.86293705  0.55643478  0.72013612
   0.67160520  0.50734658  0.53922570
   0.58555672  0.58142112  0.58222078
   0.48076130  0.43670683  0.51655223
   0.41229229  0.24804907  0.58196873
   0.59266576  0.25964348  0.47691476
   0.03427413  0.69042857  0.57423496
   0.35274873  0.64767081  0.59174690
   0.06918784  0.49865342  0.59663203
   0.17953546  0.71353416  0.77453977
   0.46275877  0.08353540  0.39585782
   0.69141665  0.08813727  0.16030753
   0.68913912  0.07697453  0.36123455
   0.59131171  0.23976149  0.26894742
   0.76884044  0.09903168  0.93440226
   0.66919039  0.99531056  0.78051833
   0.80941805  0.89372050  0.88710955
   0.87458057  0.02842429  0.77212278
   0.83229326  0.93845963  0.16262224
   0.90706512  0.56927640  0.26728231
   0.98897535  0.89013043  0.02249496
   0.84389310  0.75599379  0.07500654
   0.36825345  0.57763168  0.28413977
   0.46710855  0.57191988  0.98317438
   0.24722699  0.59849317  0.99024271
   0.33393752  0.41510373  0.01511607
   0.85313428  0.18893789  0.29160079
   0.72779485  0.21505155  0.11038536
   0.95144902  0.25923975  0.11188913
   0.81032906  0.38485155  0.21879937
   0.64516081  0.51237329  0.10253896
   0.59798334  0.38871615  0.95862089
   0.79930953  0.40639689  0.01796806
   0.70142534  0.58813789  0.90711520
   0.16859205  0.58830124  0.21828492
   0.28408503  0.76085714  0.18094695
   0.44899371  0.79639130  0.37620712
   0.22578756  0.70973292  0.36898962
   0.48746662  0.28637764  0.79712070
   0.69695138  0.43507143  0.64676789
   0.50652056  0.08956584  0.85847092
   0.56229027  0.47863851  0.76757493
   0.54596376  0.69639130  0.16704163
   0.24033260  0.88132298  0.99746325
   0.43899064  0.73150311  0.62875307
   0.97668912  0.61313478  0.91023841
   0.21878523  0.46899255  0.80491352
   0.37500557  0.18235155  0.00802223
   0.71590798  0.23549752  0.75629360
   0.25300257  0.16659627  0.77653668
   0.05492378  0.36526522  0.33897751
   0.97828652  0.51615528  0.11770513
   0.34273318  0.89867081  0.77940420
   0.90505590  0.81072671  0.39691351
   0.00956747  0.19875714  0.78248480
   0.51592960  0.43344161  0.24817832
   0.59211977  0.90957143  0.24803464
   0.46016113  0.13512733  0.62542286
   0.53809908  0.93876398  0.02216791
   0.37978715  0.04089957  0.15625952
   0.22583748  0.46266522  0.41671702
   0.54800418  0.76942857  0.87265630
   0.39395593  0.62899379  0.80790889
   0.16017639  0.15668758  0.98568878
   0.86211340  0.21271366  0.56607381
   0.08988410  0.25127143  0.58066404
   0.08272390  0.71216770  0.05739847
   0.07888329  0.84942236  0.27881447
   0.10705923  0.95563975  0.77600093
   0.96268071  0.79885093  0.78056095
   0.07453225  0.43127578  0.95314156
   0.77727669  0.66879503  0.48993000
   0.89478514  0.01956043  0.39326610
   0.25390922  0.39613478  0.62830864
 
 position of ions in cartesian coordinates  (Angst):
  11.31900000 14.07690000  2.95723000
   9.23059000 10.40840000  0.78511600
  11.07580000  9.98746000  3.45430000
  13.24270000 15.02100000  0.25332500
   9.29739000 12.31380000  4.60185000
  14.90980000 12.07270000 15.82710000
   3.48666000  0.37147200  0.39770000
   3.41242000 14.01390000  4.65176000
   1.79377000  0.21126600  5.25170000
   3.79874000 12.00410000  0.61547700
   1.28094000 11.39830000 14.63820000
   5.00840000 13.25880000  6.81355000
   6.24316000  7.98790000 10.12890000
   8.46352000 12.87760000  8.23541000
  11.33650000 14.00680000 12.46220000
   5.74954000  9.92242000  7.20726000
  11.40690000  8.48849000 12.52950000
   2.85253000 11.83860000 10.13360000
  15.39290000 14.79310000 14.15800000
  14.80590000  7.73508000 15.65620000
   2.86552000  7.92597000 11.16170000
   7.18863000 14.14950000 14.25600000
   0.07991250 10.06080000 11.90130000
  13.93640000  9.04901000 13.78130000
   5.55025000  7.16092000 14.39480000
   1.06166000  8.33913000 14.03450000
   4.11496000  9.70231000 13.90680000
   6.57273000 10.94510000 15.31660000
   0.67816800  4.98051000 11.45430000
   8.84186000 10.88960000 13.05920000
   4.49742000  4.91080000  1.06368000
   6.25906000  2.90442000  2.39759000
   6.88351000  0.90602700  0.58021200
   7.32734000  4.82354000  0.59591300
  10.69410000  5.70604000  3.54404000
   1.07935000  2.61553000  2.05683000
  13.14680000  1.54302000  7.97173000
  12.68600000  5.00270000 10.58090000
   9.86485000  0.43809800 15.04660000
   9.23171000  4.52561000 11.23220000
  13.75350000  2.74391000 13.07140000
  11.96460000  5.09405000 14.36250000
   7.87129000  3.82065000  5.97061000
   3.66070000 15.70150000 11.68280000
   5.30926000  0.89248200  5.38896000
  15.49210000  2.40027000 10.96850000
   6.45025000  0.38736300  8.52454000
  15.45570000  5.09210000  7.12080000
   5.71795000  6.53130000  6.78221000
   0.10378500  3.84549000  4.95228000
   2.94553000  4.11780000  5.04339000
  15.43160000  6.27754000  3.78959000
   2.18854000  7.77708000  5.29337000
   4.23257000  7.51789000  3.00529000
  12.55260000  9.70290000  5.58730000
   2.20320000  9.57721000  1.33007000
  12.84000000  7.43963000  2.02007000
   1.43103000 11.47670000  4.44896000
  15.19740000 10.37560000  1.00095000
   1.84157000  6.50227000  7.89295000
   6.12272000  0.69158200 12.14850000
   5.21471000 15.31620000 15.16470000
   6.00807000 14.36520000 10.75430000
   1.45929000 13.33900000 12.05530000
   3.73155000 13.53380000 14.14220000
   5.06030000 11.81790000 12.17940000
   1.04161000 12.94310000  7.37001000
  14.69210000 14.99940000  8.35120000
  14.27780000 12.28890000  3.85072000
  14.48800000 11.68200000  8.43211000
  12.32060000 12.69080000  6.85774000
  11.52930000  1.60867000 11.67670000
  15.75080000  5.21681000 14.49050000
   6.17764000  2.75238000 14.40460000
   1.97252000  2.49170000 13.99520000
   3.46207000  5.19656000 12.65670000
   1.96788000 13.92260000  1.43299000
   3.42649000  7.36741000 15.49190000
   9.01756000  6.87217000  6.54829000
   8.02827000  9.01887000  1.91184000
  11.50650000  3.78698000  5.44341000
   8.16353000  9.27002000  5.03894000
   6.74121000 11.78940000  3.82644000
  12.08070000  6.98125000  5.90196000
  12.80480000  1.05405000  4.17262000
   7.86077000 14.00510000  2.24735000
  10.42010000 10.43000000  6.72662000
  11.17370000 15.11080000  5.44599000
   7.53496000  0.55427200  4.36892000
   8.93013000 15.24780000  6.21895000
   5.99735000  3.75027000 11.62560000
  13.06410000  8.21370000  9.27148000
   8.86433000  1.06102000 11.98840000
   2.96203000  2.60672000 10.53730000
   9.51855000  1.37747000  7.55127000
   9.65328000  3.57602000 13.73500000
  11.23260000 15.03690000  9.33501000
  10.20170000 11.09090000  9.89531000
   5.70373000  4.80384000  3.54689000
   3.55294000 15.32110000  8.52529000
  15.09290000  9.13742000  6.18000000
  14.58220000  7.04684000 11.95530000
   8.41564000  5.35689000  9.40977000
   1.63634000  9.67547000  8.66540000
   9.56368000  1.85522000  3.89273000
  12.49190000  0.18379500 13.92590000
  14.66460000 13.67870000  2.04713000
   5.61867000  8.77814000  0.74107400
  13.49970000  4.03363000  2.88722000
  10.83030000  7.76551000 15.86820000
   4.23534000 10.71170000  4.37236000
   8.27741000  6.43296000 13.97570000
  11.03730000  0.89125200  9.25545000
  10.55490000 14.05890000  7.40405000
   9.44918000 13.95850000 10.91820000
  12.84500000 14.00970000 10.14780000
  10.85340000 10.80820000 11.77940000
  11.71850000 11.83730000  4.68316000
   7.88703000 15.65230000 10.27670000
   7.94942000 10.92750000  6.80519000
   6.96689000  6.53829000  2.91274000
   5.68791000  4.47171000  5.61725000
   1.70528000  2.15439000  4.15604000
   3.79804000  5.32039000  3.13452000
   4.03676000 15.63100000  6.42659000
   4.35943000  1.01359000  9.62597000
   4.24754000 13.58060000  9.23307000
   1.51510000 15.26050000  8.53630000
  14.46430000  7.28604000  6.87160000
  10.49770000  8.60850000  5.39567000
   1.08310000  9.45674000  6.55132000
  10.98600000  5.07454000  7.15877000
  13.59990000  6.60790000 13.95860000
   0.42886700  6.99510000 12.45160000
  13.82950000  8.95860000 11.82850000
  10.76320000  8.16828000  8.85698000
   9.38418000  9.36088000  9.56319000
   7.70472000  7.03098000  8.48456000
   6.60743000  3.99359000  9.55905000
   9.49811000  4.18026000  7.83350000
   0.54928000 11.11590000  9.43202000
   5.65318000 10.42750000  9.71966000
   1.10881000  8.02832000  9.79990000
   2.87725000 11.48790000 12.72210000
   7.41621000  1.34492000  6.50211000
  11.08070000  1.41901000  2.63311000
  11.04420000  1.23929000  5.93341000
   9.47641000  3.86016000  4.41756000
  12.32150000  1.59441000 15.34790000
  10.72450000 16.02450000 12.82030000
  12.97180000 14.38890000 14.57110000
  14.01610000  0.45763100 12.68240000
  13.33840000 15.10920000  2.67113000
  14.53670000  9.16535000  4.39021000
  15.84940000 14.33110000  0.36948800
  13.52430000 12.17150000  1.23201000
   5.90166000  9.29987000  4.66710000
   7.48592000  9.20791000 16.14900000
   3.96208000  9.63574000 16.26510000
   5.35171000  6.68317000  0.24828700
  13.67240000  3.04190000  4.78965000
  11.66370000  3.46233000  1.81312000
  15.24800000  4.17376000  1.83782000
  12.98640000  6.19611000  3.59386000
  10.33940000  8.24921000  1.68424000
   9.58333000  6.25833000 15.74570000
  12.80980000  6.54299000  0.29513200
  11.24110000  9.46902000 14.89970000
   2.70187000  9.47165000  3.58541000
   4.55277000 12.24980000  2.97212000
   7.19561000 12.82190000  6.17934000
   3.61849000 11.42670000  6.06079000
   7.81218000  4.61068000 13.09300000
  11.16940000  7.00465000 10.62340000
   8.11754000  1.44201000 14.10070000
   9.01131000  7.70608000 12.60770000
   8.74966000 11.21190000  2.74372000
   3.85159000 14.18930000 16.38370000
   7.03530000 11.77720000 10.32750000
  15.65250000  9.87147000 14.95100000
   3.50627000  7.55078000 13.22100000
   6.00987000  2.93586000  0.13176800
  11.47320000  3.79151000 12.42240000
   4.05464000  2.68220000 12.75490000
   0.88021300  5.88077000  5.56783000
  15.67810000  8.31010000  1.93335000
   5.49267000 14.46860000 12.80200000
  14.50450000 13.05270000  6.51945000
   0.15332900  3.19999000 12.85260000
   8.26833000  6.97841000  4.07642000
   9.48936000 14.64410000  4.07406000
   7.37458000  2.17555000 10.27280000
   8.62362000 15.11410000  0.36411600
   6.08650000  0.65848300  2.56662000
   3.61929000  7.44891000  6.84473000
   8.78236000 12.38780000 14.33370000
   6.31357000 10.12680000 13.27020000
   2.56700000  2.52267000 16.19030000
  13.81630000  3.42469000  9.29797000
   1.44049000  4.04547000  9.53762000
   1.32574000 11.46590000  0.94279100
   1.26419000 13.67570000  4.57963000
   1.71574000 15.38580000 12.74610000
  15.42800000 12.86150000 12.82100000
   1.19446000  6.94354000 15.65570000
  12.45670000 10.76760000  8.04728000
  14.33990000  0.31492300  6.45954000
   4.06917000  6.37777000 10.32020000
 


--------------------------------------------------------------------------------------------------------


 k-point  1 :   0.0000 0.0000 0.0000  plane waves:  107615

 maximum and minimum number of plane-waves per node :     13456    13445

 maximum number of plane-waves:    107615
 maximum index in each direction: 
   IXMAX=   29   IYMAX=   29   IZMAX=   29
   IXMIN=  -29   IYMIN=  -29   IZMIN=  -29


 parallel 3D FFT for wavefunctions:
    minimum data exchange during FFTs selected (reduces bandwidth)
 parallel 3D FFT for charge:
    minimum data exchange during FFTs selected (reduces bandwidth)


 total amount of memory used by VASP MPI-rank0   111673. kBytes
=======================================================================

   base      :      30000. kBytes
   nonl-proj :      48226. kBytes
   fftplans  :       6264. kBytes
   grid      :      10964. kBytes
   one-center:         79. kBytes
   wavefun   :      16140. kBytes
 
     INWAV:  cpu time    0.0000: real time    0.0000
 Broyden mixing: mesh for mixing (old mesh)
   NGX = 59   NGY = 59   NGZ = 59
  (NGX  =180   NGY  =180   NGZ  =180)
  gives a total of 205379 points

 initial charge density was supplied:
 charge density of overlapping atoms calculated
 number of electron     960.0000000 magnetization 
 keeping initial charge density in first step


--------------------------------------------------------------------------------------------------------


 Maximum index for augmentation-charges          365 (set IRDMAX)


--------------------------------------------------------------------------------------------------------


 First call to EWALD:  gamma=   0.110
 Maximum number of real-space cells 3x 3x 3
 Maximum number of reciprocal cells 3x 3x 3

    FEWALD:  cpu time    0.0078: real time    0.0079


--------------------------------------- Iteration      1(   1)  ---------------------------------------


    POTLOK:  cpu time    0.0847: real time    0.0860
    SETDIJ:  cpu time    0.0080: real time    0.0082
    EDDIAG:  cpu time    0.9693: real time    0.9720
  RMM-DIIS:  cpu time    5.4786: real time    5.4815
    ORTHCH:  cpu time    0.2644: real time    0.2643
       DOS:  cpu time    0.0007: real time    0.0007
    --------------------------------------------
      LOOP:  cpu time    6.8058: real time    6.8129

 eigenvalue-minimisations  :   592
 total energy-change (2. order) :-0.3831811E+04  (-0.4703520E+05)
 number of electron     960.0000000 magnetization 
 augmentation part      960.0000000 magnetization 

 Free energy of the ion-electron system (eV)
  ---------------------------------------------------
  alpha Z        PSCENC =       804.77846877
  Ewald energy   TEWEN  =    -29567.53912168
  -Hartree energ DENC   =    -12661.59793566
  -exchange      EXHF   =         0.00000000
  -V(xc)+E(xc)   XCENC  =      2534.05042611
  PAW double counting   =     32496.41603574   -33591.34861692
  entropy T*S    EENTRO =        -0.00206198
  eigenvalues    EBANDS =    -14830.55341510
  atomic energy  EATOM  =     50983.98519967
  Solvation  Ediel_sol  =         0.00000000
  ---------------------------------------------------
  free energy    TOTEN  =     -3831.81102105 eV

  energy without entropy =    -3831.80895907  energy(sigma->0) =    -3831.80999006


--------------------------------------------------------------------------------------------------------




--------------------------------------- Iteration      1(   2)  ---------------------------------------


    EDDIAG:  cpu time    0.9534: real time    0.9553
  RMM-DIIS:  cpu time    5.5536: real time    5.5593
    ORTHCH:  cpu time    0.2659: real time    0.2660
       DOS:  cpu time    0.0005: real time    0.0005
    --------------------------------------------
      LOOP:  cpu time    6.7734: real time    6.7812

 eigenvalue-minimisations  :   592
 total energy-change (2. order) : 0.6210570E+04  (-0.7373309E+04)
 number of electron     960.0000000 magnetization 
 augmentation part      960.0000000 magnetization 

 Free energy of the ion-electron system (eV)
  ---------------------------------------------------
  alpha Z        PSCENC =       804.77846877
  Ewald energy   TEWEN  =    -29567.53912168
  -Hartree energ DENC   =    -12661.59793566
  -exchange      EXHF   =         0.00000000
  -V(xc)+E(xc)   XCENC  =      2534.05042611
  PAW double counting   =     32496.41603574   -33591.34861692
  entropy T*S    EENTRO =        -0.07085557
  eigenvalues    EBANDS =     -8619.91417498
  atomic energy  EATOM  =     50983.98519967
  Solvation  Ediel_sol  =         0.00000000
  ---------------------------------------------------
  free energy    TOTEN  =      2378.75942547 eV

  energy without entropy =     2378.83028104  energy(sigma->0) =     2378.79485326


--------------------------------------------------------------------------------------------------------




--------------------------------------- Iteration      1(   3)  ---------------------------------------


    EDDIAG:  cpu time    0.9533: real time    0.9538
  RMM-DIIS:  cpu time    5.4745: real time    5.4798
    ORTHCH:  cpu time    0.2655: real time    0.2655
       DOS:  cpu time    0.0005: real time    0.0005
    --------------------------------------------
      LOOP:  cpu time    6.6939: real time    6.6997

 eigenvalue-minimisations  :   592
 total energy-change (2. order) :-0.1589025E+04  (-0.2340716E+04)
 number of electron     960.0000000 magnetization 
 augmentation part      960.0000000 magnetization 

 Free energy of the ion-electron system (eV)
  ---------------------------------------------------
  alpha Z        PSCENC =       804.77846877
  Ewald energy   TEWEN  =    -29567.53912168
  -Hartree energ DENC   =    -12661.59793566
  -exchange      EXHF   =         0.00000000
  -V(xc)+E(xc)   XCENC  =      2534.05042611
  PAW double counting   =     32496.41603574   -33591.34861692
  entropy T*S    EENTRO =        -0.04808464
  eigenvalues    EBANDS =    -10208.96226910
  atomic energy  EATOM  =     50983.98519967
  Solvation  Ediel_sol  =         0.00000000
  ---------------------------------------------------
  free energy    TOTEN  =       789.73410229 eV

  energy without entropy =      789.78218693  energy(sigma->0) =      789.75814461


--------------------------------------------------------------------------------------------------------




--------------------------------------- Iteration      1(   4)  ---------------------------------------


    EDDIAG:  cpu time    0.9657: real time    0.9665
  RMM-DIIS:  cpu time    5.4785: real time    5.4808
    ORTHCH:  cpu time    0.2642: real time    0.2646
       DOS:  cpu time    0.0006: real time    0.0006
    --------------------------------------------
      LOOP:  cpu time    6.7089: real time    6.7124

 eigenvalue-minimisations  :   592
 total energy-change (2. order) :-0.8252454E+03  (-0.8276280E+03)
 number of electron     960.0000000 magnetization 
 augmentation part      960.0000000 magnetization 

 Free energy of the ion-electron system (eV)
  ---------------------------------------------------
  alpha Z        PSCENC =       804.77846877
  Ewald energy   TEWEN  =    -29567.53912168
  -Hartree energ DENC   =    -12661.59793566
  -exchange      EXHF   =         0.00000000
  -V(xc)+E(xc)   XCENC  =      2534.05042611
  PAW double counting   =     32496.41603574   -33591.34861692
  entropy T*S    EENTRO =        -0.04477741
  eigenvalues    EBANDS =    -11034.21100710
  atomic energy  EATOM  =     50983.98519967
  Solvation  Ediel_sol  =         0.00000000
  ---------------------------------------------------
  free energy    TOTEN  =       -35.51132848 eV

  energy without entropy =      -35.46655107  energy(sigma->0) =      -35.48893978


--------------------------------------------------------------------------------------------------------




--------------------------------------- Iteration      1(   5)  ---------------------------------------


    EDDIAG:  cpu time    0.9689: real time    0.9695
  RMM-DIIS:  cpu time    5.4564: real time    5.4931
    ORTHCH:  cpu time    0.2649: real time    0.2649
       DOS:  cpu time    0.0005: real time    0.0005
    --------------------------------------------
      LOOP:  cpu time    6.6907: real time    6.7280

 eigenvalue-minimisations  :   592
 total energy-change (2. order) :-0.3587404E+03  (-0.3278203E+03)
 number of electron     960.0000000 magnetization 
 augmentation part      960.0000000 magnetization 

 Free energy of the ion-electron system (eV)
  ---------------------------------------------------
  alpha Z        PSCENC =       804.77846877
  Ewald energy   TEWEN  =    -29567.53912168
  -Hartree energ DENC   =    -12661.59793566
  -exchange      EXHF   =         0.00000000
  -V(xc)+E(xc)   XCENC  =      2534.05042611
  PAW double counting   =     32496.41603574   -33591.34861692
  entropy T*S    EENTRO =        -0.00001992
  eigenvalues    EBANDS =    -11392.99613019
  atomic energy  EATOM  =     50983.98519967
  Solvation  Ediel_sol  =         0.00000000
  ---------------------------------------------------
  free energy    TOTEN  =      -394.25169408 eV

  energy without entropy =     -394.25167417  energy(sigma->0) =     -394.25168412


--------------------------------------------------------------------------------------------------------




--------------------------------------- Iteration      1(   6)  ---------------------------------------


    EDDIAG:  cpu time    0.9724: real time    0.9732
  RMM-DIIS:  cpu time    5.4577: real time    5.4667
    ORTHCH:  cpu time    0.2646: real time    0.2648
       DOS:  cpu time    0.0003: real time    0.0003
    --------------------------------------------
      LOOP:  cpu time    6.6949: real time    6.7050

 eigenvalue-minimisations  :   592
 total energy-change (2. order) :-0.1520494E+03  (-0.1391245E+03)
 number of electron     960.0000000 magnetization 
 augmentation part      960.0000000 magnetization 

 Free energy of the ion-electron system (eV)
  ---------------------------------------------------
  alpha Z        PSCENC =       804.77846877
  Ewald energy   TEWEN  =    -29567.53912168
  -Hartree energ DENC   =    -12661.59793566
  -exchange      EXHF   =         0.00000000
  -V(xc)+E(xc)   XCENC  =      2534.05042611
  PAW double counting   =     32496.41603574   -33591.34861692
  entropy T*S    EENTRO =        -0.00000000
  eigenvalues    EBANDS =    -11545.04552027
  atomic energy  EATOM  =     50983.98519967
  Solvation  Ediel_sol  =         0.00000000
  ---------------------------------------------------
  free energy    TOTEN  =      -546.30106424 eV

  energy without entropy =     -546.30106424  energy(sigma->0) =     -546.30106424


--------------------------------------------------------------------------------------------------------




--------------------------------------- Iteration      1(   7)  ---------------------------------------


    EDDIAG:  cpu time    0.9731: real time    0.9740
  RMM-DIIS:  cpu time    5.4615: real time    5.4650
    ORTHCH:  cpu time    0.2648: real time    0.2649
       DOS:  cpu time    0.0004: real time    0.0004
    --------------------------------------------
      LOOP:  cpu time    6.6998: real time    6.7043

 eigenvalue-minimisations  :   592
 total energy-change (2. order) :-0.7253353E+02  (-0.6927895E+02)
 number of electron     960.0000000 magnetization 
 augmentation part      960.0000000 magnetization 

 Free energy of the ion-electron system (eV)
  ---------------------------------------------------
  alpha Z        PSCENC =       804.77846877
  Ewald energy   TEWEN  =    -29567.53912168
  -Hartree energ DENC   =    -12661.59793566
  -exchange      EXHF   =         0.00000000
  -V(xc)+E(xc)   XCENC  =      2534.05042611
  PAW double counting   =     32496.41603574   -33591.34861692
  entropy T*S    EENTRO =        -0.00000000
  eigenvalues    EBANDS =    -11617.57905157
  atomic energy  EATOM  =     50983.98519967
  Solvation  Ediel_sol  =         0.00000000
  ---------------------------------------------------
  free energy    TOTEN  =      -618.83459554 eV

  energy without entropy =     -618.83459554  energy(sigma->0) =     -618.83459554


--------------------------------------------------------------------------------------------------------




--------------------------------------- Iteration      1(   8)  ---------------------------------------


    EDDIAG:  cpu time    0.9446: real time    0.9454
  RMM-DIIS:  cpu time    5.4724: real time    5.4753
    ORTHCH:  cpu time    0.2628: real time    0.2630
       DOS:  cpu time    0.0003: real time    0.0003
    --------------------------------------------
      LOOP:  cpu time    6.6801: real time    6.6839

 eigenvalue-minimisations  :   592
 total energy-change (2. order) :-0.4221205E+02  (-0.3975664E+02)
 number of electron     960.0000000 magnetization 
 augmentation part      960.0000000 magnetization 

 Free energy of the ion-electron system (eV)
  ---------------------------------------------------
  alpha Z        PSCENC =       804.77846877
  Ewald energy   TEWEN  =    -29567.53912168
  -Hartree energ DENC   =    -12661.59793566
  -exchange      EXHF   =         0.00000000
  -V(xc)+E(xc)   XCENC  =      2534.05042611
  PAW double counting   =     32496.41603574   -33591.34861692
  entropy T*S    EENTRO =        -0.00000000
  eigenvalues    EBANDS =    -11659.79110264
  atomic energy  EATOM  =     50983.98519967
  Solvation  Ediel_sol  =         0.00000000
  ---------------------------------------------------
  free energy    TOTEN  =      -661.04664661 eV

  energy without entropy =     -661.04664661  energy(sigma->0) =     -661.04664661


--------------------------------------------------------------------------------------------------------




--------------------------------------- Iteration      1(   9)  ---------------------------------------


    EDDIAG:  cpu time    0.9741: real time    0.9747
  RMM-DIIS:  cpu time   19.4023: real time   19.4169
    ORTHCH:  cpu time    0.2574: real time    0.2574
       DOS:  cpu time    0.0004: real time    0.0004
    --------------------------------------------
      LOOP:  cpu time   20.6343: real time   20.6495

 eigenvalue-minimisations  :  2143
 total energy-change (2. order) :-0.1114352E+03  (-0.1106765E+03)
 number of electron     960.0000000 magnetization 
 augmentation part      960.0000000 magnetization 

 Free energy of the ion-electron system (eV)
  ---------------------------------------------------
  alpha Z        PSCENC =       804.77846877
  Ewald energy   TEWEN  =    -29567.53912168
  -Hartree energ DENC   =    -12661.59793566
  -exchange      EXHF   =         0.00000000
  -V(xc)+E(xc)   XCENC  =      2534.05042611
  PAW double counting   =     32496.41603574   -33591.34861692
  entropy T*S    EENTRO =        -0.00000000
  eigenvalues    EBANDS =    -11771.22634883
  atomic energy  EATOM  =     50983.98519967
  Solvation  Ediel_sol  =         0.00000000
  ---------------------------------------------------
  free energy    TOTEN  =      -772.48189280 eV

  energy without entropy =     -772.48189280  energy(sigma->0) =     -772.48189280


--------------------------------------------------------------------------------------------------------




--------------------------------------- Iteration      1(  10)  ---------------------------------------


    EDDIAG:  cpu time    0.9751: real time    0.9765
  RMM-DIIS:  cpu time   19.4175: real time   19.4495
    ORTHCH:  cpu time    0.2633: real time    0.2633
       DOS:  cpu time    0.0003: real time    0.0003
    --------------------------------------------
      LOOP:  cpu time   20.6561: real time   20.6897

 eigenvalue-minimisations  :  2137
 total energy-change (2. order) :-0.5780757E+02  (-0.5698391E+02)
 number of electron     960.0000000 magnetization 
 augmentation part      960.0000000 magnetization 

 Free energy of the ion-electron system (eV)
  ---------------------------------------------------
  alpha Z        PSCENC =       804.77846877
  Ewald energy   TEWEN  =    -29567.53912168
  -Hartree energ DENC   =    -12661.59793566
  -exchange      EXHF   =         0.00000000
  -V(xc)+E(xc)   XCENC  =      2534.05042611
  PAW double counting   =     32496.41603574   -33591.34861692
  entropy T*S    EENTRO =        -0.00000000
  eigenvalues    EBANDS =    -11829.03392004
  atomic energy  EATOM  =     50983.98519967
  Solvation  Ediel_sol  =         0.00000000
  ---------------------------------------------------
  free energy    TOTEN  =      -830.28946401 eV

  energy without entropy =     -830.28946401  energy(sigma->0) =     -830.28946401


--------------------------------------------------------------------------------------------------------




--------------------------------------- Iteration      1(  11)  ---------------------------------------


    EDDIAG:  cpu time    0.9734: real time    0.9739
  RMM-DIIS:  cpu time   18.6284: real time   18.6452
    ORTHCH:  cpu time    0.2600: real time    0.2600
       DOS:  cpu time    0.0004: real time    0.0004
    --------------------------------------------
      LOOP:  cpu time   19.8622: real time   19.8795

 eigenvalue-minimisations  :  2059
 total energy-change (2. order) :-0.1227740E+02  (-0.1262296E+02)
 number of electron     960.0000000 magnetization 
 augmentation part      960.0000000 magnetization 

 Free energy of the ion-electron system (eV)
  ---------------------------------------------------
  alpha Z        PSCENC =       804.77846877
  Ewald energy   TEWEN  =    -29567.53912168
  -Hartree energ DENC   =    -12661.59793566
  -exchange      EXHF   =         0.00000000
  -V(xc)+E(xc)   XCENC  =      2534.05042611
  PAW double counting   =     32496.41603574   -33591.34861692
  entropy T*S    EENTRO =        -0.00000000
  eigenvalues    EBANDS =    -11841.31132455
  atomic energy  EATOM  =     50983.98519967
  Solvation  Ediel_sol  =         0.00000000
  ---------------------------------------------------
  free energy    TOTEN  =      -842.56686852 eV

  energy without entropy =     -842.56686852  energy(sigma->0) =     -842.56686852


--------------------------------------------------------------------------------------------------------




--------------------------------------- Iteration      1(  12)  ---------------------------------------


    EDDIAG:  cpu time    0.9730: real time    0.9741
  RMM-DIIS:  cpu time   18.6393: real time   18.6788
    ORTHCH:  cpu time    0.2604: real time    0.2606
       DOS:  cpu time    0.0003: real time    0.0003
    CHARGE:  cpu time    0.1935: real time    0.1935
    MIXING:  cpu time    0.0023: real time    0.0027
    --------------------------------------------
      LOOP:  cpu time   20.0689: real time   20.1100

 eigenvalue-minimisations  :  2041
 total energy-change (2. order) :-0.7679657E+01  (-0.7680451E+01)
 number of electron     960.0000041 magnetization 
 augmentation part        6.4018514 magnetization 

 Broyden mixing:
  rms(total) = 0.71646E+01    rms(broyden)= 0.71620E+01
  rms(prec ) = 0.75178E+01
  weight for this iteration     100.00

 Free energy of the ion-electron system (eV)
  ---------------------------------------------------
  alpha Z        PSCENC =       804.77846877
  Ewald energy   TEWEN  =    -29567.53912168
  -Hartree energ DENC   =    -12661.59793566
  -exchange      EXHF   =         0.00000000
  -V(xc)+E(xc)   XCENC  =      2534.05042611
  PAW double counting   =     32496.41603574   -33591.34861692
  entropy T*S    EENTRO =        -0.00000000
  eigenvalues    EBANDS =    -11848.99098187
  atomic energy  EATOM  =     50983.98519967
  Solvation  Ediel_sol  =         0.00000000
  ---------------------------------------------------
  free energy    TOTEN  =      -850.24652584 eV

  energy without entropy =     -850.24652584  energy(sigma->0) =     -850.24652584


--------------------------------------------------------------------------------------------------------




--------------------------------------- Iteration      1(  13)  ---------------------------------------


    POTLOK:  cpu time    0.0812: real time    0.0814
    SETDIJ:  cpu time    0.0069: real time    0.0069
    EDDIAG:  cpu time    0.9675: real time    0.9681
  RMM-DIIS:  cpu time   14.3767: real time   14.4192
    ORTHCH:  cpu time    0.2613: real time    0.2618
       DOS:  cpu time    0.0006: real time    0.0006
    CHARGE:  cpu time    0.1992: real time    0.1992
    MIXING:  cpu time    0.0023: real time    0.0024
    --------------------------------------------
      LOOP:  cpu time   15.8956: real time   15.9397

 eigenvalue-minimisations  :  1580
 total energy-change (2. order) : 0.4116675E+02  (-0.1008453E+02)
 number of electron     960.0000042 magnetization 
 augmentation part        7.0265455 magnetization 

 Broyden mixing:
  rms(total) = 0.47533E+01    rms(broyden)= 0.47532E+01
  rms(prec ) = 0.48745E+01
  weight for this iteration     100.00

 eigenvalues of (default mixing * dielectric matrix)
  average eigenvalue GAMMA=   2.1365
  2.1365

 Free energy of the ion-electron system (eV)
  ---------------------------------------------------
  alpha Z        PSCENC =       804.77846877
  Ewald energy   TEWEN  =    -29567.53912168
  -Hartree energ DENC   =    -12972.51142570
  -exchange      EXHF   =         0.00000000
  -V(xc)+E(xc)   XCENC  =      2556.62125079
  PAW double counting   =     45278.09839159   -46394.60632404
  entropy T*S    EENTRO =        -0.00008864
  eigenvalues    EBANDS =    -11497.90612591
  atomic energy  EATOM  =     50983.98519967
  Solvation  Ediel_sol  =         0.00000000
  ---------------------------------------------------
  free energy    TOTEN  =      -809.07977516 eV

  energy without entropy =     -809.07968651  energy(sigma->0) =     -809.07973083


--------------------------------------------------------------------------------------------------------




--------------------------------------- Iteration      1(  14)  ---------------------------------------


    POTLOK:  cpu time    0.0809: real time    0.0816
    SETDIJ:  cpu time    0.0069: real time    0.0069
    EDDIAG:  cpu time    0.9708: real time    0.9725
  RMM-DIIS:  cpu time   15.0821: real time   15.1220
    ORTHCH:  cpu time    0.2629: real time    0.2634
       DOS:  cpu time    0.0007: real time    0.0007
    CHARGE:  cpu time    0.1988: real time    0.1988
    MIXING:  cpu time    0.0022: real time    0.0022
    --------------------------------------------
      LOOP:  cpu time   16.6052: real time   16.6480

 eigenvalue-minimisations  :  1671
 total energy-change (2. order) : 0.2587580E+01  (-0.7590143E+01)
 number of electron     960.0000042 magnetization 
 augmentation part        6.3709597 magnetization 

 Broyden mixing:
  rms(total) = 0.18231E+01    rms(broyden)= 0.18230E+01
  rms(prec ) = 0.20886E+01
  weight for this iteration     100.00

 eigenvalues of (default mixing * dielectric matrix)
  average eigenvalue GAMMA=   1.7460
  1.1138  2.3782

 Free energy of the ion-electron system (eV)
  ---------------------------------------------------
  alpha Z        PSCENC =       804.77846877
  Ewald energy   TEWEN  =    -29567.53912168
  -Hartree energ DENC   =    -13254.40923780
  -exchange      EXHF   =         0.00000000
  -V(xc)+E(xc)   XCENC  =      2577.21704360
  PAW double counting   =     68896.72950147   -70035.94078488
  entropy T*S    EENTRO =        -0.04106022
  eigenvalues    EBANDS =    -11211.27220382
  atomic energy  EATOM  =     50983.98519967
  Solvation  Ediel_sol  =         0.00000000
  ---------------------------------------------------
  free energy    TOTEN  =      -806.49219490 eV

  energy without entropy =     -806.45113467  energy(sigma->0) =     -806.47166478


--------------------------------------------------------------------------------------------------------




--------------------------------------- Iteration      1(  15)  ---------------------------------------


    POTLOK:  cpu time    0.0810: real time    0.0811
    SETDIJ:  cpu time    0.0082: real time    0.0082
    EDDIAG:  cpu time    0.9653: real time    0.9695
  RMM-DIIS:  cpu time   16.7218: real time   16.7439
    ORTHCH:  cpu time    0.2597: real time    0.2603
       DOS:  cpu time    0.0005: real time    0.0005
    CHARGE:  cpu time    0.1973: real time    0.1975
    MIXING:  cpu time    0.0023: real time    0.0023
    --------------------------------------------
      LOOP:  cpu time   18.2360: real time   18.2634

 eigenvalue-minimisations  :  1845
 total energy-change (2. order) :-0.1095742E+01  (-0.2726556E+01)
 number of electron     960.0000042 magnetization 
 augmentation part        5.2887420 magnetization 

 Broyden mixing:
  rms(total) = 0.79846E+00    rms(broyden)= 0.79810E+00
  rms(prec ) = 0.96321E+00
  weight for this iteration     100.00

 eigenvalues of (default mixing * dielectric matrix)
  average eigenvalue GAMMA=   1.4346
  2.4191  1.2863  0.5985

 Free energy of the ion-electron system (eV)
  ---------------------------------------------------
  alpha Z        PSCENC =       804.77846877
  Ewald energy   TEWEN  =    -29567.53912168
  -Hartree energ DENC   =    -13268.13133078
  -exchange      EXHF   =         0.00000000
  -V(xc)+E(xc)   XCENC  =      2578.62161796
  PAW double counting   =     74946.28822932   -76091.08676634
  entropy T*S    EENTRO =        -0.00000542
[...]
      9.56368      1.85522      3.89273        -0.084290     -0.046201      3.158274
     12.49190      0.18379     13.92590         0.041547     -0.505800      0.118280
     14.66460     13.67870      2.04713         1.762072     -0.223591     -0.116126
      5.61867      8.77814      0.74107         1.227094     -0.709355      0.828777
     13.49970      4.03363      2.88722         0.336868      1.301090      1.181849
     10.83030      7.76551     15.86820         3.459862      1.421375      4.302761
      4.23534     10.71170      4.37236         1.262084     -2.246859     -1.939701
      8.27741      6.43296     13.97570        -2.399265      1.364450     -0.585714
     11.03730      0.89125      9.25545         0.390061      0.642914      0.622450
     10.55490     14.05890      7.40405         0.111150      0.642199      1.893878
      9.44918     13.95850     10.91820        -0.796271      1.661902     -2.205893
     12.84500     14.00970     10.14780        -0.760165      1.249335     -0.737362
     10.85340     10.80820     11.77940         0.693165      0.762121      0.490199
     11.71850     11.83730      4.68316         0.235485      0.235094      0.167741
      7.88703     15.65230     10.27670         1.418507     -0.917549      0.618398
      7.94942     10.92750      6.80519         0.346819      0.445508      0.394971
      6.96689      6.53829      2.91274        -4.719126     -1.873212     -4.300184
      5.68791      4.47171      5.61725        -0.024349      0.314070     -0.161774
      1.70528      2.15439      4.15604         0.411033      0.171718      0.354982
      3.79804      5.32039      3.13452        -1.475258      0.308666      0.054270
      4.03676     15.63100      6.42659        -0.419664     -1.258332      0.533687
      4.35943      1.01359      9.62597        -0.305495     -2.506795     -0.761642
      4.24754     13.58060      9.23307         0.904642     -0.267026     -0.194247
      1.51510     15.26050      8.53630         0.258444     -0.093927     -0.067696
     14.46430      7.28604      6.87160        -0.948176      0.345366      1.415509
     10.49770      8.60850      5.39567         0.134097     -0.796713      0.121288
      1.08310      9.45674      6.55132        -0.122628      0.535792     -0.281394
     10.98600      5.07454      7.15877         3.736501      2.834188     -0.799698
     13.59990      6.60790     13.95860         0.922033      0.151868     -0.822710
      0.42887      6.99510     12.45160         2.398923     -0.045174      0.513552
     13.82950      8.95860     11.82850         0.008824      1.273631     -3.345381
     10.76320      8.16828      8.85698         1.265140     -2.209391      0.294108
      9.38418      9.36088      9.56319        -3.360041     -1.400183     -0.908251
      7.70472      7.03098      8.48456        -0.821499     -0.052961     -0.324212
      6.60743      3.99359      9.55905         0.476872      0.492557     -1.462323
      9.49811      4.18026      7.83350        -4.004203     -2.307917      1.557466
      0.54928     11.11590      9.43202        -1.228453      2.537680      0.941185
      5.65318     10.42750      9.71966        -0.917470     -0.692459     -0.405973
      1.10881      8.02832      9.79990        -0.816513      0.347254     -1.127212
      2.87725     11.48790     12.72210        -0.475133      0.371489      0.216839
      7.41621      1.34492      6.50211        -0.402173     -0.731113     -0.134650
     11.08070      1.41901      2.63311         1.009259      0.893577     -2.222275
     11.04420      1.23929      5.93341        -0.725436      0.397025     -1.416459
      9.47641      3.86016      4.41756        -0.192782      0.191458     -1.469943
     12.32150      1.59441     15.34790        -0.219351     -0.246052      0.318996
     10.72450     16.02450     12.82030         0.269130      0.062326      0.950936
     12.97180     14.38890     14.57110        -1.033568     -0.376948     -0.024219
     14.01610      0.45763     12.68240         0.762615      0.690386     -1.134984
     13.33840     15.10920      2.67113        -0.535583      1.067896     -0.243921
     14.53670      9.16535      4.39021        -0.001994      1.049215     -4.692835
     15.84940     14.33110      0.36949        -0.184113      0.588757      0.028877
     13.52430     12.17150      1.23201        -0.855226     -0.736929     -0.193460
      5.90166      9.29987      4.66710        -1.815314      1.115090     -0.479160
      7.48592      9.20791     16.14900        -0.695731     -0.986257      0.246324
      3.96208      9.63574     16.26510         0.043208      0.924474     -0.650880
      5.35171      6.68317      0.24829         0.325371      0.830997     -0.868132
     13.67240      3.04190      4.78965         0.358258      1.023287     -1.516085
     11.66370      3.46233      1.81312         0.792423     -0.489312      0.390241
     15.24800      4.17376      1.83782        -1.212822      0.123172      0.415287
     12.98640      6.19611      3.59386         0.365876     -2.944836      1.487627
     10.33940      8.24921      1.68424         0.442272     -0.143187     -1.680649
      9.58333      6.25833     15.74570        -0.864339     -1.957906     -0.851365
     12.80980      6.54299      0.29513        -1.394291     -0.907245     -3.432067
     11.24110      9.46902     14.89970        -0.398286     -0.662921     -0.088650
      2.70187      9.47165      3.58541         0.251473      0.230170      0.207291
      4.55277     12.24980      2.97212         0.067546      0.062289      0.403707
      7.19561     12.82190      6.17934         0.124624     -0.104480     -0.476162
      3.61849     11.42670      6.06079        -0.455908      0.945796      1.842710
      7.81218      4.61068     13.09300        -0.200546     -0.155565      0.013168
     11.16940      7.00465     10.62340         0.506629     -0.527174     -1.304930
      8.11754      1.44201     14.10070        -1.099578     -0.131478     -0.153481
      9.01131      7.70608     12.60770        -0.044731     -0.097303      0.325530
      8.74966     11.21190      2.74372        -1.003232      0.155270      0.046236
      3.85159     14.18930     16.38370        -0.128731      0.185445      0.470357
      7.03530     11.77720     10.32750         1.121308      0.652029     -0.118539
     15.65250      9.87147     14.95100        -0.349100      0.560801      0.207681
      3.50627      7.55078     13.22100         0.628639     -0.105053      1.259146
      6.00987      2.93586      0.13177        -0.098714      1.084104      1.145843
     11.47320      3.79151     12.42240         0.176168      0.219207     -0.357904
      4.05464      2.68220     12.75490         0.728871      0.288015     -0.469500
      0.88021      5.88077      5.56783         0.522163     -0.900918     -0.051018
     15.67810      8.31010      1.93335        -0.202902     -0.152620      0.890771
      5.49267     14.46860     12.80200        -0.807849      0.254557      1.534010
     14.50450     13.05270      6.51945         1.454931     -0.135854      0.583204
      0.15333      3.19999     12.85260        -0.368052      0.902144      0.784630
      8.26833      6.97841      4.07642         4.810216      1.712673      4.809351
      9.48936     14.64410      4.07406        -1.157732      0.784805     -0.585412
      7.37458      2.17555     10.27280         0.477562      0.156888      0.091239
      8.62362     15.11410      0.36412        -0.603334      0.074992     -0.143077
      6.08650      0.65848      2.56662        -0.491924     -0.710301      1.373544
      3.61929      7.44891      6.84473         1.174255      0.064360      0.508130
      8.78236     12.38780     14.33370        -0.498688      1.548332      1.558807
      6.31357     10.12680     13.27020        -0.268192      0.154335     -0.128205
      2.56700      2.52267     16.19030        -0.373966     -0.474328      0.757529
     13.81630      3.42469      9.29797         0.317413     -0.282575     -0.149152
      1.44049      4.04547      9.53762        -0.122101     -0.065828     -0.411066
      1.32574     11.46590      0.94279         0.318068      1.090178     -0.044363
      1.26419     13.67570      4.57963         0.076771      0.641937     -0.242615
      1.71574     15.38580     12.74610         0.164063      0.329465      0.284793
     15.42800     12.86150     12.82100         0.120803     -0.412495      0.090590
      1.19446      6.94354     15.65570        -0.284663     -1.073110      1.125708
     12.45670     10.76760      8.04728        -0.176188     -0.573870      0.336941
     14.33990      0.31492      6.45954        -0.017597      0.286280      0.663168
      4.06917      6.37777     10.32020         1.079422     -0.653456     -0.539536
 -----------------------------------------------------------------------------------
    total drift:                               -0.001993     -0.017061     -0.023061


--------------------------------------------------------------------------------------------------------



  FREE ENERGIE OF THE ION-ELECTRON SYSTEM (eV)
  ---------------------------------------------------
  free  energy   TOTEN  =      -806.25409057 eV

  energy  without entropy=     -806.25370420  energy(sigma->0) =     -806.25389739
 


--------------------------------------------------------------------------------------------------------


    POTLOK:  cpu time    0.0924: real time    0.0924


--------------------------------------------------------------------------------------------------------




--------------------------------------------------------------------------------------------------------


     LOOP+:  cpu time  979.5986: real time  980.6832
    4ORBIT:  cpu time    0.0000: real time    0.0000
 


 total charge     
 
# of ion       s       p       d       tot
------------------------------------------
    1        2.022   0.055   0.000   2.077
    2        2.024   0.062   0.000   2.086
    3        2.018   0.051   0.000   2.069
    4        2.019   0.051   0.000   2.070
    5        2.023   0.061   0.000   2.085
    6        2.019   0.052   0.000   2.070
    7        2.012   0.037   0.000   2.049
    8        2.018   0.050   0.000   2.068
    9        2.015   0.042   0.000   2.057
   10        2.019   0.053   0.000   2.072
   11        2.016   0.046   0.000   2.062
   12        2.020   0.055   0.000   2.075
   13        2.008   0.033   0.000   2.041
   14        2.011   0.043   0.000   2.054
   15        2.017   0.054   0.000   2.070
   16        2.011   0.038   0.000   2.049
   17        2.015   0.050   0.000   2.066
   18        2.012   0.042   0.000   2.054
   19        2.009   0.038   0.000   2.047
   20        2.019   0.054   0.000   2.073
   21        2.033   0.076   0.000   2.109
   22        2.017   0.044   0.000   2.061
   23        2.003   0.027   0.000   2.029
   24        2.045   0.098   0.000   2.142
   25        2.019   0.049   0.000   2.069
   26        2.033   0.079   0.000   2.112
   27        2.024   0.062   0.000   2.086
   28        2.023   0.060   0.000   2.083
   29        2.027   0.063   0.000   2.090
   30        2.025   0.062   0.000   2.087
   31        2.027   0.067   0.000   2.094
   32        2.032   0.072   0.000   2.104
   33        2.022   0.057   0.000   2.079
   34        2.012   0.037   0.000   2.048
   35        2.015   0.044   0.000   2.059
   36        2.017   0.045   0.000   2.062
   37        2.014   0.042   0.000   2.055
   38        2.012   0.040   0.000   2.052
   39        2.017   0.052   0.000   2.069
   40        2.026   0.062   0.000   2.088
   41        2.018   0.050   0.000   2.068
   42        2.017   0.048   0.000   2.065
   43        2.025   0.064   0.000   2.090
   44        2.017   0.047   0.000   2.063
   45        2.020   0.054   0.000   2.074
   46        2.018   0.047   0.000   2.065
   47        2.017   0.048   0.000   2.065
   48        2.014   0.044   0.000   2.058
   49        2.015   0.043   0.000   2.058
   50        2.023   0.056   0.000   2.079
   51        2.012   0.040   0.000   2.051
   52        2.015   0.044   0.000   2.059
   53        2.026   0.067   0.000   2.093
   54        2.016   0.044   0.000   2.060
   55        2.024   0.061   0.000   2.085
   56        2.025   0.065   0.000   2.090
   57        2.049   0.115   0.000   2.163
   58        2.012   0.040   0.000   2.052
   59        2.023   0.058   0.000   2.081
   60        2.011   0.039   0.000   2.051
   61        2.010   0.038   0.000   2.048
   62        2.026   0.059   0.000   2.085
   63        2.030   0.072   0.000   2.102
   64        2.024   0.059   0.000   2.083
   65        2.021   0.053   0.000   2.073
   66        2.018   0.050   0.000   2.068
   67        2.005   0.030   0.000   2.035
   68        2.007   0.033   0.000   2.040
   69        2.010   0.039   0.000   2.049
   70        2.021   0.054   0.000   2.075
   71        2.030   0.073   0.000   2.103
   72        2.027   0.064   0.000   2.091
   73        2.007   0.032   0.000   2.039
   74        2.024   0.060   0.000   2.084
   75        2.021   0.053   0.000   2.074
   76        2.012   0.036   0.000   2.048
   77        2.012   0.040   0.000   2.053
   78        2.028   0.071   0.000   2.099
   79        2.014   0.045   0.000   2.059
   80        2.024   0.063   0.000   2.087
   81        2.029   0.070   0.000   2.099
   82        2.021   0.058   0.000   2.079
   83        2.021   0.054   0.000   2.075
   84        2.018   0.049   0.000   2.067
   85        2.020   0.057   0.000   2.077
   86        2.008   0.034   0.000   2.043
   87        2.020   0.054   0.000   2.074
   88        2.029   0.072   0.000   2.102
   89        2.027   0.064   0.000   2.090
   90        2.023   0.060   0.000   2.083
   91        2.023   0.061   0.000   2.084
   92        2.006   0.035   0.000   2.042
   93        2.025   0.062   0.000   2.086
   94        2.018   0.047   0.000   2.065
   95        2.025   0.064   0.000   2.089
   96        2.026   0.063   0.000   2.090
   97        1.008   1.296   0.000   2.304
   98        1.121   1.327   0.000   2.448
   99        1.053   1.398   0.000   2.451
  100        0.987   1.325   0.000   2.312
  101        1.040   1.434   0.000   2.473
  102        1.057   1.397   0.000   2.454
  103        1.100   1.322   0.000   2.421
  104        1.074   1.368   0.000   2.442
  105        1.098   1.299   0.000   2.396
  106        0.970   1.397   0.000   2.367
  107        1.055   1.378   0.000   2.433
  108        1.081   1.301   0.000   2.382
  109        0.999   1.279   0.000   2.279
  110        1.004   1.327   0.000   2.331
  111        0.982   1.362   0.000   2.343
  112        1.069   1.344   0.000   2.414
  113        1.347   2.433   0.000   3.780
  114        1.341   2.395   0.000   3.736
  115        1.381   2.192   0.000   3.573
  116        1.356   2.329   0.000   3.685
  117        1.346   2.415   0.000   3.761
  118        1.318   2.432   0.000   3.750
  119        1.358   2.296   0.000   3.654
  120        1.341   2.368   0.000   3.709
  121        1.357   2.430   0.000   3.787
  122        1.340   2.417   0.000   3.757
  123        1.310   2.445   0.000   3.755
  124        1.340   2.487   0.000   3.827
  125        1.327   2.452   0.000   3.779
  126        1.355   2.343   0.000   3.698
  127        1.344   2.434   0.000   3.779
  128        1.339   2.399   0.000   3.739
  129        1.339   2.407   0.000   3.745
  130        1.315   2.475   0.000   3.789
  131        1.359   2.381   0.000   3.741
  132        1.330   2.495   0.000   3.826
  133        1.349   2.390   0.000   3.739
  134        1.346   2.515   0.000   3.861
  135        1.339   2.493   0.000   3.832
  136        1.369   2.305   0.000   3.674
  137        1.368   2.419   0.000   3.788
  138        1.337   2.440   0.000   3.777
  139        1.367   2.306   0.000   3.673
  140        1.346   2.393   0.000   3.739
  141        1.333   2.484   0.000   3.817
  142        1.330   2.367   0.000   3.697
  143        1.359   2.399   0.000   3.758
  144        1.309   2.447   0.000   3.757
  145        1.312   2.454   0.000   3.766
  146        1.378   2.302   0.000   3.680
  147        1.342   2.393   0.000   3.735
  148        1.341   2.452   0.000   3.793
  149        1.351   2.388   0.000   3.739
  150        1.345   2.496   0.000   3.841
  151        1.343   2.449   0.000   3.792
  152        1.344   2.453   0.000   3.797
  153        1.332   2.461   0.000   3.793
  154        1.371   2.394   0.000   3.764
  155        1.334   2.408   0.000   3.742
  156        1.340   2.435   0.000   3.775
  157        1.348   2.365   0.000   3.713
  158        1.345   2.437   0.000   3.782
  159        1.332   2.474   0.000   3.805
  160        1.331   2.469   0.000   3.800
  161        1.353   2.376   0.000   3.730
  162        1.384   2.216   0.000   3.600
  163        1.349   2.366   0.000   3.715
  164        1.345   2.417   0.000   3.762
  165        1.348   2.341   0.000   3.689
  166        1.360   2.398   0.000   3.757
  167        1.363   2.347   0.000   3.710
  168        1.360   2.350   0.000   3.710
  169        1.339   2.429   0.000   3.767
  170        1.341   2.402   0.000   3.743
  171        1.333   2.377   0.000   3.710
  172        1.344   2.470   0.000   3.814
  173        1.339   2.455   0.000   3.794
  174        1.362   2.325   0.000   3.687
  175        1.318   2.443   0.000   3.761
  176        1.358   2.377   0.000   3.735
  177        1.314   2.469   0.000   3.782
  178        1.306   2.495   0.000   3.802
  179        1.352   2.310   0.000   3.662
  180        1.308   2.501   0.000   3.809
  181        1.313   2.497   0.000   3.810
  182        1.316   2.475   0.000   3.791
  183        1.308   2.466   0.000   3.775
  184        1.314   2.405   0.000   3.719
  185        1.312   2.482   0.000   3.794
  186        1.353   2.291   0.000   3.644
  187        1.308   2.506   0.000   3.813
  188        1.329   2.387   0.000   3.715
  189        1.310   2.480   0.000   3.790
  190        1.353   2.462   0.000   3.816
  191        1.319   2.470   0.000   3.789
  192        1.363   2.313   0.000   3.676
  193        1.591   3.551   0.000   5.142
  194        1.591   3.597   0.000   5.189
  195        1.592   3.608   0.000   5.200
  196        1.593   3.599   0.000   5.192
  197        1.594   3.588   0.000   5.182
  198        1.590   3.557   0.000   5.147
  199        1.588   3.566   0.000   5.154
  200        1.590   3.568   0.000   5.158
  201        1.595   3.594   0.000   5.189
  202        1.595   3.576   0.000   5.171
  203        1.591   3.582   0.000   5.173
  204        1.593   3.562   0.000   5.156
  205        1.594   3.588   0.000   5.182
  206        1.600   3.569   0.000   5.169
  207        1.596   3.539   0.000   5.135
  208        1.595   3.565   0.000   5.159
--------------------------------------------------
tot        343.320 276.779   0.000 620.099
 

 total amount of memory used by VASP MPI-rank0   111673. kBytes
=======================================================================

   base      :      30000. kBytes
   nonl-proj :      48226. kBytes
   fftplans  :       6264. kBytes
   grid      :      10964. kBytes
   one-center:         79. kBytes
   wavefun   :      16140. kBytes
 
  
  
 General timing and accounting informations for this job:
 ========================================================
  
                  Total CPU time used (sec):      988.870
                            User time (sec):      985.318
                          System time (sec):        3.551
                         Elapsed time (sec):      990.541
  
                   Maximum memory used (kb):      327428.
                   Average memory used (kb):           0.
  
                          Minor page faults:       455889
                          Major page faults:            0
                 Voluntary context switches:        12398
