LPSC                                    
           1
    16.026082    0.000000    0.000000
     0.000000   16.100000    0.000000
     0.000000    0.000000   16.425367
   Li   P    S    Cl
  96  16  80  16
Direct configuration=     1
   0.70628617  0.87434161  0.18004042
   0.57597297  0.64648447  0.04779899
   0.69111090  0.62033913  0.21030276
   0.82632174  0.93298137  0.01542279
   0.58014117  0.76483230  0.28016726
   0.93034592  0.74985714  0.96357664
   0.21756160  0.02307280  0.02421255
   0.21292915  0.87042857  0.28320585
   0.11192817  0.01312211  0.31973106
   0.23703485  0.74559627  0.03747113
   0.07992846  0.70796894  0.89119470
   0.31251556  0.82352795  0.41481874
   0.38956246  0.49614286  0.61666202
   0.52810912  0.79985093  0.50138362
   0.70737814  0.86998758  0.75871668
   0.35876142  0.61629938  0.43878837
   0.71177097  0.52723540  0.76281401
   0.17799297  0.73531677  0.61694816
   0.96049053  0.91882609  0.86195943
   0.92386274  0.48043975  0.95317201
   0.17880353  0.49229627  0.67954037
   0.44855817  0.87885093  0.86792581
   0.00498640  0.62489441  0.72456829
   0.86960743  0.56205031  0.83902539
   0.34632607  0.44477764  0.87637616
   0.06624576  0.51795839  0.85444057
   0.25676644  0.60262795  0.84666601
   0.41012707  0.67981988  0.93249667
   0.04231652  0.30934845  0.69735428
   0.55171688  0.67637267  0.79506290
   0.28063129  0.30501863  0.06475837
   0.39055460  0.18039876  0.14596873
   0.42951921  0.05627497  0.03532414
   0.45721343  0.29959876  0.03628004
   0.66729348  0.35441242  0.21576626
   0.06734959  0.16245528  0.12522277
   0.82033775  0.09583975  0.48533040
   0.79158462  0.31072671  0.64418043
   0.61554970  0.02721106  0.91605868
   0.57604285  0.28109379  0.68383251
   0.85819479  0.17042919  0.79580566
   0.74657050  0.31640062  0.87440969
   0.49115498  0.23730745  0.36349934
   0.22842139  0.97524845  0.71126569
   0.33128871  0.05543366  0.32808765
   0.96668044  0.14908509  0.66777808
   0.40248452  0.02405981  0.51898627
   0.96440914  0.31627950  0.43352456
   0.35679026  0.40567081  0.41291071
   0.00647601  0.23885031  0.30150194
   0.18379601  0.25576398  0.30704885
   0.96290534  0.38990932  0.23071570
   0.13656114  0.48304845  0.32226799
   0.26410510  0.46694969  0.18296638
   0.78326069  0.60266460  0.34016287
   0.13747590  0.59485776  0.08097658
   0.80119395  0.46208882  0.12298477
   0.08929381  0.71283851  0.27085909
   0.94829167  0.64444720  0.06093928
   0.11491081  0.40386770  0.48053416
   0.38204722  0.04295540  0.73961818
   0.32538895  0.95131677  0.92324878
   0.37489325  0.89224845  0.65473727
   0.09105719  0.82850932  0.73394403
   0.23284231  0.84060870  0.86099750
   0.31575403  0.73403106  0.74149941
   0.06499468  0.80391925  0.44869682
   0.91676181  0.93163975  0.50843308
   0.89091021  0.76328571  0.23443738
   0.90402632  0.72559006  0.51335900
   0.76878429  0.78824845  0.41750909
   0.71940852  0.09991739  0.71089431
   0.98282288  0.32402547  0.88220251
   0.38547413  0.17095528  0.87697279
   0.12308186  0.15476398  0.85204793
   0.21602722  0.32276770  0.77055813
   0.12279233  0.86475776  0.08724250
   0.21380709  0.45760311  0.94316918
   0.56268026  0.42684286  0.39866933
   0.50095026  0.56017826  0.11639557
   0.71798584  0.23521615  0.33140264
   0.50939026  0.57577764  0.30677792
   0.42063993  0.73226087  0.23295918
   0.75381494  0.43361801  0.35931983
   0.79899753  0.06546894  0.25403512
   0.49049855  0.86988199  0.13682190
   0.65019635  0.64782609  0.40952631
   0.69721969  0.93855901  0.33155971
   0.47016857  0.03442683  0.26598614
   0.55722478  0.94706832  0.37861863
   0.37422434  0.23293602  0.70778327
   0.81517741  0.51016770  0.56446106
   0.55311897  0.06590186  0.72987106
   0.18482559  0.16190807  0.64152600
   0.59394118  0.08555714  0.45973219
   0.60234810  0.22211304  0.83620658
   0.70089495  0.93396894  0.56832885
   0.63656856  0.68887578  0.60244072
   0.35590296  0.29837516  0.21593977
   0.22169736  0.95162112  0.51903193
   0.94177105  0.56754161  0.37624730
   0.90990424  0.43769193  0.72785588
   0.52512149  0.33272609  0.57288035
   0.10210481  0.60096087  0.52756203
   0.59675721  0.11523106  0.23699501
   0.77947311  0.01141584  0.84782885
   0.91504586  0.84960870  0.12463222
   0.35059536  0.54522609  0.04511765
   0.84235810  0.25053602  0.17577811
   0.67579212  0.48232981  0.96607887
   0.26427794  0.66532298  0.26619557
   0.51649617  0.39956273  0.85086074
   0.68870857  0.05535727  0.56348513
   0.65860764  0.87322360  0.45076923
   0.58961261  0.86698758  0.66471574
   0.80150595  0.87016770  0.61781268
   0.67723352  0.67131677  0.71714684
   0.73121428  0.73523602  0.28511753
   0.49213713  0.97219255  0.62566030
   0.49603016  0.67872671  0.41430977
   0.43472197  0.40610497  0.17733181
   0.35491582  0.27774596  0.34198627
   0.10640654  0.13381304  0.25302570
   0.23699117  0.33045901  0.19083409
   0.25188689  0.97086957  0.39126006
   0.27202095  0.06295590  0.58604292
   0.26503920  0.84351553  0.56212260
   0.09453964  0.94785714  0.51970224
   0.90254748  0.45254907  0.41835290
   0.65503846  0.53468944  0.32849616
   0.06758358  0.58737516  0.39885380
   0.68550754  0.31518882  0.43583623
   0.84861041  0.41042857  0.84981967
   0.02676056  0.43447826  0.75807134
   0.86293705  0.55643478  0.72013612
   0.67160520  0.50734658  0.53922570
   0.58555672  0.58142112  0.58222078
   0.48076130  0.43670683  0.51655223
   0.41229229  0.24804907  0.58196873
   0.59266576  0.25964348  0.47691476
   0.03427413  0.69042857  0.57423496
   0.35274873  0.64767081  0.59174690
   0.06918784  0.49865342  0.59663203
   0.17953546  0.71353416  0.77453977
   0.46275877  0.08353540  0.39585782
   0.69141665  0.08813727  0.16030753
   0.68913912  0.07697453  0.36123455
   0.59131171  0.23976149  0.26894742
   0.76884044  0.09903168  0.93440226
   0.66919039  0.99531056  0.78051833
   0.80941805  0.89372050  0.88710955
   0.87458057  0.02842429  0.77212278
   0.83229326  0.93845963  0.16262224
   0.90706512  0.56927640  0.26728231
   0.98897535  0.89013043  0.02249496
   0.84389310  0.75599379  0.07500654
   0.36825345  0.57763168  0.28413977
   0.46710855  0.57191988  0.98317438
   0.24722699  0.59849317  0.99024271
   0.33393752  0.41510373  0.01511607
   0.85313428  0.18893789  0.29160079
   0.72779485  0.21505155  0.11038536
   0.95144902  0.25923975  0.11188913
   0.81032906  0.38485155  0.21879937
   0.64516081  0.51237329  0.10253896
   0.59798334  0.38871615  0.95862089
   0.79930953  0.40639689  0.01796806
   0.70142534  0.58813789  0.90711520
   0.16859205  0.58830124  0.21828492
   0.28408503  0.76085714  0.18094695
   0.44899371  0.79639130  0.37620712
   0.22578756  0.70973292  0.36898962
   0.48746662  0.28637764  0.79712070
   0.69695138  0.43507143  0.64676789
   0.50652056  0.08956584  0.85847092
   0.56229027  0.47863851  0.76757493
   0.54596376  0.69639130  0.16704163
   0.24033260  0.88132298  0.99746325
   0.43899064  0.73150311  0.62875307
   0.97668912  0.61313478  0.91023841
   0.21878523  0.46899255  0.80491352
   0.37500557  0.18235155  0.00802223
   0.71590798  0.23549752  0.75629360
   0.25300257  0.16659627  0.77653668
   0.05492378  0.36526522  0.33897751
   0.97828652  0.51615528  0.11770513
   0.34273318  0.89867081  0.77940420
   0.90505590  0.81072671  0.39691351
   0.00956747  0.19875714  0.78248480
   0.51592960  0.43344161  0.24817832
   0.59211977  0.90957143  0.24803464
   0.46016113  0.13512733  0.62542286
   0.53809908  0.93876398  0.02216791
   0.37978715  0.04089957  0.15625952
   0.22583748  0.46266522  0.41671702
   0.54800418  0.76942857  0.87265630
   0.39395593  0.62899379  0.80790889
   0.16017639  0.15668758  0.98568878
   0.86211340  0.21271366  0.56607381
   0.08988410  0.25127143  0.58066404
   0.08272390  0.71216770  0.05739847
   0.07888329  0.84942236  0.27881447
   0.10705923  0.95563975  0.77600093
   0.96268071  0.79885093  0.78056095
   0.07453225  0.43127578  0.95314156
   0.77727669  0.66879503  0.48993000
   0.89478514  0.01956043  0.39326610
   0.25390922  0.39613478  0.62830864
