 vasp.5.4.4.18Apr17-6-g9f103f2a35 (build Jan 22 2020 12:49:05) complex          
  
 executed on Bebop BDW IPS19.0.5  date 2022.10.04  13:03:01
 running on   64 total cores
 distrk:  each k-point on   64 cores,    1 groups
 distr:  one band on NCORES_PER_BAND=   8 cores,    8 groups


--------------------------------------------------------------------------------------------------------


 INCAR:
 POTCAR:    PAW_PBE Li_sv 10Sep2004               
 POTCAR:    PAW_PBE P 06Sep2000                   
 POTCAR:    PAW_PBE S 06Sep2000                   
 POTCAR:    PAW_PBE Cl 06Sep2000                  
 POTCAR:    PAW_PBE Li_sv 10Sep2004               
   VRHFIN =Li: 1s2s2p                                                           
   LEXCH  = PE                                                                  
   EATOM  =   202.7858 eV,   14.9043 Ry                                         
                                                                                
   TITEL  = PAW_PBE Li_sv 10Sep2004                                             
   LULTRA =        F    use ultrasoft PP ?                                      
   IUNSCR =        0    unscreen: 0-lin 1-nonlin 2-no                           
   RPACOR =    0.000    partial core radius                                     
   POMASS =    7.010; ZVAL   =    3.000    mass and valenz                      
   RCORE  =    1.700    outmost cutoff radius                                   
   RWIGS  =    2.050; RWIGS  =    1.085    wigner-seitz radius (au A)           
   ENMAX  =  499.034; ENMIN  =  374.276 eV                                      
   ICORE  =        2    local potential                                         
   LCOR   =        T    correct aug charges                                     
   LPAW   =        T    paw PP                                                  
   EAUG   =  628.945                                                            
   RMAX   =    1.732    core radius for proj-oper                               
   RAUG   =    1.300    factor for augmentation sphere                          
   RDEP   =    1.728    radius for radial grids                                 
   RDEPT  =    1.329    core radius for aug-charge                              
                                                                                
   Atomic configuration                                                         
    4 entries                                                                   
     n  l   j            E        occ.                                          
     1  0  0.50       -51.8549   2.0000                                         
     2  0  0.50        -2.8742   1.0000                                         
     2  1  0.50        -1.3606   0.0000                                         
     3  2  1.50        -1.3606   0.0000                                         
   Description                                                                  
     l       E           TYP  RCUT    TYP  RCUT                                 
     0    -51.8548813     23  1.400                                             
     0     -2.8742052     23  1.700                                             
     1     -1.3605826     23  1.400                                             
     2     -1.3605826     23  1.400                                             
  local pseudopotential read in
  atomic valenz-charges read in
  non local Contribution for L=           0  read in
    real space projection operators read in
  non local Contribution for L=           0  read in
    real space projection operators read in
  non local Contribution for L=           1  read in
    real space projection operators read in
    PAW grid and wavefunctions read in
 
   number of l-projection  operators is LMAX  =           3
   number of lm-projection operators is LMMAX =           5
 
 POTCAR:    PAW_PBE P 06Sep2000                   
   VRHFIN =P : s2p3                                                             
   LEXCH  = PE                                                                  
   EATOM  =   176.0430 eV,   12.9388 Ry                                         
                                                                                
   TITEL  = PAW_PBE P 06Sep2000                                                 
   LULTRA =        F    use ultrasoft PP ?                                      
   IUNSCR =        1    unscreen: 0-lin 1-nonlin 2-no                           
   RPACOR =    1.500    partial core radius                                     
   POMASS =   30.974; ZVAL   =    5.000    mass and valenz                      
   RCORE  =    1.900    outmost cutoff radius                                   
   RWIGS  =    2.330; RWIGS  =    1.233    wigner-seitz radius (au A)           
   ENMAX  =  255.040; ENMIN  =  191.280 eV                                      
   ICORE  =        2    local potential                                         
   LCOR   =        T    correct aug charges                                     
   LPAW   =        T    paw PP                                                  
   EAUG   =  342.924                                                            
   DEXC   =    0.000                                                            
   RMAX   =    1.935    core radius for proj-oper                               
   RAUG   =    1.300    factor for augmentation sphere                          
   RDEP   =    1.931    radius for radial grids                                 
   RDEPT  =    1.794    core radius for aug-charge                              
                                                                                
   Atomic configuration                                                         
    6 entries                                                                   
     n  l   j            E        occ.                                          
     1  0  0.50     -2084.0982   2.0000                                         
     2  0  0.50      -173.9859   2.0000                                         
     2  1  1.50      -124.4865   6.0000                                         
     3  0  0.50       -13.9692   2.0000                                         
     3  1  0.50        -5.5067   3.0000                                         
     3  2  1.50        -5.4423   0.0000                                         
   Description                                                                  
     l       E           TYP  RCUT    TYP  RCUT                                 
     0    -13.9691527     23  1.900                                             
     0    -11.7794650     23  1.900                                             
     1     -5.5066937     23  1.900                                             
     1     -0.2556953     23  1.900                                             
     2     -5.4423304     23  1.900                                             
  local pseudopotential read in
  partial core-charges read in
  partial kinetic energy density read in
  atomic valenz-charges read in
  non local Contribution for L=           0  read in
    real space projection operators read in
  non local Contribution for L=           0  read in
    real space projection operators read in
  non local Contribution for L=           1  read in
    real space projection operators read in
  non local Contribution for L=           1  read in
    real space projection operators read in
    PAW grid and wavefunctions read in
 
   number of l-projection  operators is LMAX  =           4
   number of lm-projection operators is LMMAX =           8
 
 POTCAR:    PAW_PBE S 06Sep2000                   
   VRHFIN =S : s2p4                                                             
   LEXCH  = PE                                                                  
   EATOM  =   276.8230 eV,   20.3459 Ry                                         
                                                                                
   TITEL  = PAW_PBE S 06Sep2000                                                 
   LULTRA =        F    use ultrasoft PP ?                                      
   IUNSCR =        1    unscreen: 0-lin 1-nonlin 2-no                           
   RPACOR =    1.500    partial core radius                                     
   POMASS =   32.066; ZVAL   =    6.000    mass and valenz                      
   RCORE  =    1.900    outmost cutoff radius                                   
   RWIGS  =    2.200; RWIGS  =    1.164    wigner-seitz radius (au A)           
   ENMAX  =  258.689; ENMIN  =  194.016 eV                                      
   ICORE  =        2    local potential                                         
   LCOR   =        T    correct aug charges                                     
   LPAW   =        T    paw PP                                                  
   EAUG   =  335.092                                                            
   DEXC   =    0.000                                                            
   RMAX   =    1.942    core radius for proj-oper                               
   RAUG   =    1.300    factor for augmentation sphere                          
   RDEP   =    1.954    radius for radial grids                                 
   RDEPT  =    1.744    core radius for aug-charge                              
                                                                                
   Atomic configuration                                                         
    6 entries                                                                   
     n  l   j            E        occ.                                          
     1  0  0.50     -2405.8406   2.0000                                         
     2  0  0.50      -211.7007   2.0000                                         
     2  1  1.50      -156.4958   6.0000                                         
     3  0  0.50       -17.2562   2.0000                                         
     3  1  0.50        -7.0085   4.0000                                         
     3  2  1.50        -6.8029   0.0000                                         
   Description                                                                  
     l       E           TYP  RCUT    TYP  RCUT                                 
     0    -17.2561641     23  1.900                                             
     0    -15.8743224     23  1.900                                             
     1     -7.0085400     23  1.900                                             
     1     -2.7779785     23  1.900                                             
     2     -6.8029130     23  1.900                                             
  local pseudopotential read in
  partial core-charges read in
  partial kinetic energy density read in
  atomic valenz-charges read in
  non local Contribution for L=           0  read in
    real space projection operators read in
  non local Contribution for L=           0  read in
    real space projection operators read in
  non local Contribution for L=           1  read in
    real space projection operators read in
  non local Contribution for L=           1  read in
    real space projection operators read in
    PAW grid and wavefunctions read in
 
   number of l-projection  operators is LMAX  =           4
   number of lm-projection operators is LMMAX =           8
 
 POTCAR:    PAW_PBE Cl 06Sep2000                  
   VRHFIN =Cl: s2p5                                                             
   LEXCH  = PE                                                                  
   EATOM  =   409.7259 eV,   30.1140 Ry                                         
                                                                                
   TITEL  = PAW_PBE Cl 06Sep2000                                                
   LULTRA =        F    use ultrasoft PP ?                                      
   IUNSCR =        1    unscreen: 0-lin 1-nonlin 2-no                           
   RPACOR =    1.500    partial core radius                                     
   POMASS =   35.453; ZVAL   =    7.000    mass and valenz                      
   RCORE  =    1.900    outmost cutoff radius                                   
   RWIGS  =    2.100; RWIGS  =    1.111    wigner-seitz radius (au A)           
   ENMAX  =  262.472; ENMIN  =  196.854 eV                                      
   ICORE  =        2    local potential                                         
   LCOR   =        T    correct aug charges                                     
   LPAW   =        T    paw PP                                                  
   EAUG   =  356.192                                                            
   DEXC   =    0.000                                                            
   RMAX   =    1.945    core radius for proj-oper                               
   RAUG   =    1.300    factor for augmentation sphere                          
   RDEP   =    2.020    radius for radial grids                                 
   RDEPT  =    1.678    core radius for aug-charge                              
                                                                                
   Atomic configuration                                                         
    6 entries                                                                   
     n  l   j            E        occ.                                          
     1  0  0.50     -2751.1850   2.0000                                         
     2  0  0.50      -252.6861   2.0000                                         
     2  1  1.50      -191.6157   6.0000                                         
     3  0  0.50       -20.6916   2.0000                                         
     3  1  0.50        -8.5949   5.0000                                         
     3  2  1.50        -8.1635   0.0000                                         
   Description                                                                  
     l       E           TYP  RCUT    TYP  RCUT                                 
     0    -20.6915656     23  1.900                                             
     0    -22.0521482     23  1.900                                             
     1     -8.5948577     23  1.900                                             
     1     -5.3847331     23  1.900                                             
     2     -8.1634956     23  1.900                                             
  local pseudopotential read in
  partial core-charges read in
  partial kinetic energy density read in
  atomic valenz-charges read in
  non local Contribution for L=           0  read in
    real space projection operators read in
  non local Contribution for L=           0  read in
    real space projection operators read in
  non local Contribution for L=           1  read in
    real space projection operators read in
  non local Contribution for L=           1  read in
    real space projection operators read in
    PAW grid and wavefunctions read in
 
   number of l-projection  operators is LMAX  =           4
   number of lm-projection operators is LMMAX =           8
 

 ----------------------------------------------------------------------------- 
|                                                                             |
|  ADVICE TO THIS USER RUNNING 'VASP/VAMP'   (HEAR YOUR MASTER'S VOICE ...):  |
|                                                                             |
|      You have a (more or less) 'large supercell' and for larger cells       |
|      it might be more efficient to use real space projection opertators     |
|      So try LREAL= Auto  in the INCAR   file.                               |
|      Mind:          For very  accurate calculation you might also keep the  |
|      reciprocal projection scheme          (i.e. LREAL=.FALSE.)             |
|                                                                             |
 ----------------------------------------------------------------------------- 

  PAW_PBE Li_sv 10Sep2004               :
 energy of atom  1       EATOM= -202.7858
 kinetic energy error for atom=    0.0143 (will be added to EATOM!!)
  PAW_PBE P 06Sep2000                   :
 energy of atom  2       EATOM= -176.0430
 kinetic energy error for atom=    0.0013 (will be added to EATOM!!)
  PAW_PBE S 06Sep2000                   :
 energy of atom  3       EATOM= -276.8230
 kinetic energy error for atom=    0.0020 (will be added to EATOM!!)
  PAW_PBE Cl 06Sep2000                  :
 energy of atom  4       EATOM= -409.7259
 kinetic energy error for atom=    0.0030 (will be added to EATOM!!)
 
 
 POSCAR: New POSCAR file                         
  positions in cartesian coordinates
  No initial velocities read in
 exchange correlation table for  LEXCH =        8
   RHO(1)=    0.500       N(1)  =     2000
   RHO(2)=  100.500       N(2)  =     4000
 


--------------------------------------------------------------------------------------------------------


 ion  position               nearest neighbor table
   1  0.726  0.834  0.178- 118 2.19 153 2.56
   2  0.607  0.679  0.984- 196 2.23 168 2.62
   3  0.658  0.651  0.181- 177 2.10 118 2.33 165 2.66
   4  0.790  0.896  0.023- 151 2.36 156 2.53 153 2.58
   5  0.586  0.786  0.269- 191 2.19 177 2.35 118 2.36
   6  0.908  0.744  0.884- 204 2.29 180 2.48
   7  0.233  0.019  0.039- 178 2.23
   8  0.197  0.855  0.273- 202 2.07 170 2.35
   9  0.079  0.032  0.354- 123 2.28
  10  0.233  0.700  0.078- 159 2.30 170 2.31 201 2.41
  11  0.108  0.675  0.896- 180 2.38 144 2.40 159 2.66
  12  0.308  0.835  0.440- 127 2.46 172 2.53 125 2.55 171 2.69
  13  0.325  0.497  0.632- 208 2.07 142 2.41
  14  0.562  0.789  0.538-  98 2.25 114 2.28 120 2.52 115 2.59
  15  0.688  0.870  0.770- 150 2.23 115 2.39 151 2.58
  16  0.375  0.620  0.436- 120 2.32 142 2.46 157 2.56
  17  0.715  0.537  0.729- 117 2.25 174 2.31 135 2.37
  18  0.160  0.752  0.614- 127 2.18 141 2.50  64 2.57 144 2.65
  19  0.012  0.930  0.862- 203 1.85
  20  0.930  0.493  0.979- 180 2.33  24 2.35 205 2.37 186 2.44 167 2.58 133 2.68
  21  0.167  0.445  0.684- 208 1.99 134 2.36 181 2.38 143 2.67
  22  0.515  0.894  0.896- 193 2.04 196 2.25  39 2.54
  23  0.995  0.632  0.738- 135 2.46
  24  0.859  0.532  0.859- 133 2.15 180 2.34  20 2.35 135 2.35 168 2.54 102 2.71
  25  0.401  0.502  0.858- 112 2.09 158 2.39 197 2.52 181 2.64
  26  0.063  0.507  0.843- 134 1.95 205 2.22 180 2.33
  27  0.277  0.612  0.798- 197 1.84 181 2.29 144 2.33
  28  0.429  0.709  0.911- 196 2.12 197 2.14 158 2.54
  29  0.049  0.301  0.698- 200 2.14 189 2.26 134 2.29  46 2.45
  30  0.514  0.621  0.730- 137 2.38 197 2.41 179 2.65
  31  0.251  0.246  0.027- 198 2.07 182 2.46
  32  0.386  0.155  0.144- 194 1.81 182 2.25  99 2.56
  33  0.468  0.071  0.028- 182 2.26 193 2.37
  34  0.443  0.322  0.068- 121 2.42 182 2.48 160 2.51
  35  0.625  0.376  0.193- 190 2.23 148 2.50 165 2.67
  36  0.120  0.192  0.127- 198 2.34 123 2.42
  37  0.824  0.113  0.495- 199 2.14 113 2.51
  38  0.790  0.291  0.643- 199 2.04 183 2.32 174 2.54
  39  0.592  0.032  0.899- 175 1.80 193 2.30 150 2.43  22 2.54
  40  0.576  0.279  0.638- 103 1.61 139 2.58 173 2.62 140 2.69
  41  0.853  0.179  0.795- 183 2.21 152 2.29 189 2.46
  42  0.740  0.311  0.894- 183 2.34 133 2.56 167 2.60
  43  0.471  0.239  0.373- 145 2.40 148 2.40 122 2.41 140 2.61
  44  0.232  0.995  0.713- 187 2.42 126 2.58
  45  0.333  0.071  0.324- 145 2.37 125 2.43
  46  0.974  0.190  0.627- 199 2.00 200 2.10  29 2.45
  47  0.402  0.074  0.515- 126 2.21 192 2.23 145 2.43
  48  0.943  0.327  0.387- 185 1.94 129 2.32
  49  0.374  0.428  0.384- 195 2.16 122 2.41
  50  0.007  0.233  0.259- 123 2.39 163 2.50 185 2.52 161 2.62
  51  0.194  0.248  0.308- 123 2.36 122 2.40 124 2.65
  52  0.955  0.390  0.189- 186 2.37 163 2.43 164 2.51
  53  0.105  0.469  0.265- 185 2.30 169 2.40
  54  0.301  0.450  0.228- 124 2.29 157 2.36 121 2.42  99 2.71
  55  0.786  0.611  0.289- 118 2.28 154 2.56 130 2.67
  56  0.104  0.567  0.106- 169 2.17 186 2.17 201 2.54
  57  0.788  0.515  0.111- 167 2.41 165 2.55
  58  0.112  0.713  0.279- 202 2.23 169 2.42 172 2.54
  59  0.947  0.676  0.042- 156 2.21 201 2.32 180 2.59
  60  0.113  0.466  0.435- 195 2.23 131 2.33 143 2.42 185 2.54 104 2.72 101 2.76
  61  0.422  0.009  0.775- 187 2.26 119 2.46 175 2.57
  62  0.346  0.926  0.920- 178 2.32 187 2.52
  63  0.364  0.895  0.641- 187 2.16 127 2.21 119 2.22
  64  0.082  0.817  0.735- 204 2.05 203 2.15 144 2.34  18 2.57
  65  0.210  0.850  0.863- 178 2.27 187 2.63
  66  0.308  0.771  0.752- 187 2.13 144 2.38 197 2.49 179 2.65
  67  0.050  0.812  0.469- 128 2.30 188 2.39
  68  0.871  0.941  0.492- 207 2.12 188 2.34
  69  0.927  0.767  0.276- 188 2.36 202 2.59
  70  0.909  0.729  0.489- 188 2.34 206 2.35 141 2.47
  71  0.779  0.802  0.392- 118 2.36 188 2.38  87 2.52 114 2.59
  72  0.751  0.132  0.679- 183 2.34 113 2.45
  73  0.010  0.337  0.872- 205 2.23 189 2.46 133 2.49 134 2.51
  74  0.370  0.152  0.871- 182 2.40 175 2.42 184 2.61
  75  0.121  0.153  0.829- 189 2.17 184 2.36
  76  0.233  0.333  0.800- 181 2.26 184 2.53
  77  0.112  0.853  0.062- 155 2.10 178 2.25 201 2.26
  78  0.215  0.461  0.935- 181 2.29 160 2.34 159 2.39 205 2.50
  79  0.583  0.417  0.441- 138 2.29 132 2.39 136 2.66 103 2.76
  80  0.503  0.567  0.107- 165 2.21 158 2.29 177 2.36 108 2.70
  81  0.716  0.251  0.290- 148 2.28 161 2.36 132 2.54 109 2.60 164 2.66
  82  0.529  0.604  0.303- 130 2.40 120 2.61 190 2.66 177 2.67
  83  0.412  0.706  0.249- 111 2.25 177 2.40 157 2.42 170 2.52 171 2.52
  84  0.761  0.451  0.374- 130 2.25 129 2.44
  85  0.801  0.026  0.287- 207 2.36 147 2.37 153 2.52
  86  0.520  0.862  0.122- 191 2.38 193 2.43
  87  0.654  0.707  0.400- 118 2.43  71 2.52 120 2.53
  88  0.668  0.932  0.332- 191 2.13 114 2.51 147 2.57
  89  0.484  0.029  0.247- 194 2.07 105 2.16 191 2.25 145 2.43  90 2.56
  90  0.505  0.937  0.372- 191 2.32 145 2.54  89 2.56 171 2.56
  91  0.374  0.233  0.723- 139 2.24 184 2.28 173 2.36
  92  0.842  0.510  0.561- 136 2.42 129 2.48
  93  0.546  0.109  0.734- 192 2.21 175 2.22  96 2.56
  94  0.221  0.204  0.625- 184 2.41 200 2.43
  95  0.580  0.101  0.465- 145 2.27 140 2.33 147 2.46 113 2.59
  96  0.649  0.170  0.837- 183 2.19 175 2.48  93 2.56 149 2.64
  97  0.694  0.925  0.581- 116 1.96 113 2.07 114 2.08 115 2.10
  98  0.630  0.688  0.604- 117 1.92 137 2.04  14 2.25
  99  0.355  0.290  0.220- 122 2.05 121 2.28 124 2.29  32 2.56  54 2.71
 100  0.202  0.977  0.524- 126 1.84 128 1.86 125 2.18 127 2.44
 101  0.954  0.527  0.413- 129 1.43 131 2.26  60 2.76
 102  0.886  0.431  0.730- 135 2.16 133 2.19 134 2.50  24 2.71
 103  0.524  0.340  0.580-  40 1.61 138 1.74 139 2.21 140 2.52  79 2.76
 104  0.127  0.607  0.526- 143 2.02 141 2.21 131 2.25  60 2.72
 105  0.591  0.110  0.250-  89 2.16 148 2.30 146 2.37 147 2.49
 106  0.784  0.009  0.854- 152 2.03 151 2.07 149 2.08 150 2.13
 107  0.922  0.858  0.127- 153 1.95 155 2.03 156 2.20
 108  0.347  0.537  0.054- 158 2.01 160 2.25 159 2.48  80 2.70
 109  0.841  0.256  0.188- 161 2.02 164 2.07 163 2.08 162 2.30  81 2.60
 110  0.686  0.482  0.962- 168 1.92 166 2.15 167 2.20 165 2.49
 111  0.280  0.662  0.267- 172 1.90 157 1.93 170 2.11 169 2.20  83 2.25
 112  0.496  0.414  0.858- 176 2.04  25 2.09 166 2.19 173 2.52
 113  0.697  0.052  0.563-  97 2.07  72 2.45  37 2.51  95 2.59
 114  0.658  0.870  0.472-  97 2.08  14 2.28  88 2.51  71 2.59
 115  0.595  0.888  0.657- 119 2.06  97 2.10  15 2.39  14 2.59
 116  0.789  0.863  0.625-  97 1.96
 117  0.678  0.671  0.711-  98 1.92  17 2.25
 118  0.726  0.739  0.273-   1 2.19  55 2.28   3 2.33   5 2.36  71 2.36  87 2.43
 119  0.487  0.957  0.649- 115 2.06  63 2.22  61 2.46 192 2.76
 120  0.501  0.691  0.434- 171 1.97  16 2.32  14 2.52  87 2.53  82 2.61
 121  0.440  0.400  0.194- 190 1.89  99 2.28  34 2.42  54 2.42
 122  0.333  0.290  0.343-  99 2.05  51 2.40  43 2.41  49 2.41
 123  0.116  0.132  0.262-   9 2.28  51 2.36  50 2.39  36 2.42
 124  0.227  0.339  0.178-  54 2.29  99 2.29  51 2.65
 125  0.246  0.975  0.398- 100 2.18  45 2.43  12 2.55
 126  0.280  0.045  0.572- 100 1.84  47 2.21  44 2.58
 127  0.252  0.845  0.579-  18 2.18  63 2.21 100 2.44  12 2.46
 128  0.092  0.942  0.511- 100 1.86  67 2.30
 129  0.901  0.458  0.431- 101 1.43  48 2.32  84 2.44  92 2.48
 130  0.651  0.519  0.320-  84 2.25  82 2.40 190 2.54  55 2.67
 131  0.073  0.600  0.399- 104 2.25 101 2.26  60 2.33
 132  0.677  0.303  0.431- 140 1.82  79 2.39  81 2.54
 133  0.868  0.399  0.859-  24 2.15 102 2.19  73 2.49  42 2.56  20 2.68 167 2.70
 134  0.040  0.431  0.754-  26 1.95  29 2.29  21 2.36 102 2.50  73 2.51
 135  0.860  0.563  0.719- 102 2.16  24 2.35  17 2.37  23 2.46
 136  0.695  0.477  0.545- 174 1.77  92 2.42  79 2.66
 137  0.553  0.587  0.595-  98 2.04  30 2.38
 138  0.476  0.424  0.533- 103 1.74  79 2.29
 139  0.424  0.247  0.596- 192 2.14 103 2.21  91 2.24  40 2.58
 140  0.593  0.245  0.478- 132 1.82  95 2.33 103 2.52  43 2.61  40 2.69
 141  0.026  0.684  0.577- 104 2.21  70 2.47  18 2.50
 142  0.345  0.636  0.582- 179 2.34  13 2.41  16 2.46
 143  0.066  0.506  0.569- 104 2.02  60 2.42  21 2.67
 144  0.174  0.710  0.769-  27 2.33  64 2.34  66 2.38  11 2.40  18 2.65
 145  0.468  0.090  0.382-  95 2.27  45 2.37  43 2.40  89 2.43  47 2.43  90 2.54
 146  0.691  0.092  0.144- 162 2.02 105 2.37
 147  0.692  0.086  0.363-  85 2.37  95 2.46 105 2.49  88 2.57
 148  0.576  0.250  0.269-  81 2.28 105 2.30  43 2.40  35 2.50
 149  0.749  0.096  0.942- 106 2.08  96 2.64
 150  0.676  0.008  0.778- 106 2.13  15 2.23  39 2.43
 151  0.802  0.885  0.880- 106 2.07   4 2.36  15 2.58
 152  0.873  0.040  0.772- 106 2.03  41 2.29
 153  0.843  0.942  0.164- 107 1.95  85 2.52   1 2.56   4 2.58
 154  0.924  0.575  0.220- 186 2.12  55 2.56
 155  0.993  0.900  0.033- 107 2.03  77 2.10
 156  0.843  0.759  0.077- 107 2.20  59 2.21   4 2.53
 157  0.356  0.572  0.288- 111 1.93  54 2.36  83 2.42  16 2.56
 158  0.442  0.569  0.981- 108 2.01  80 2.29  25 2.39  28 2.54
 159  0.233  0.603  0.974-  10 2.30  78 2.39 108 2.48  11 2.66
 160  0.326  0.407  0.010- 108 2.25  78 2.34  34 2.51
 161  0.852  0.195  0.295- 109 2.02  81 2.36  50 2.62
 162  0.729  0.208  0.114- 146 2.02 109 2.30
 163  0.950  0.257  0.119- 109 2.08  52 2.43  50 2.50
 164  0.803  0.374  0.222- 109 2.07  52 2.51  81 2.66
 165  0.629  0.512  0.100-  80 2.21 110 2.49  57 2.55   3 2.66  35 2.67
 166  0.595  0.385  0.947- 110 2.15 112 2.19
 167  0.795  0.411  0.006- 110 2.20  57 2.41  20 2.58  42 2.60 133 2.70
 168  0.723  0.586  0.919- 110 1.92  24 2.54   2 2.62
 169  0.174  0.591  0.216-  56 2.17 111 2.20  53 2.40  58 2.42
 170  0.281  0.768  0.192- 111 2.11  10 2.31   8 2.35  83 2.52
 171  0.454  0.786  0.375- 120 1.97  83 2.52  90 2.56  12 2.69
 172  0.244  0.714  0.364- 111 1.90  12 2.53  58 2.54
 173  0.501  0.280  0.780-  91 2.36 112 2.52  40 2.62
 174  0.708  0.427  0.640- 136 1.77  17 2.31  38 2.54
 175  0.513  0.103  0.865-  39 1.80  93 2.22  74 2.42  96 2.48  61 2.57
 176  0.563  0.460  0.763- 112 2.04
 177  0.535  0.696  0.168-   3 2.10   5 2.35  80 2.36  83 2.40  82 2.67
 178  0.229  0.888  0.994-   7 2.23  77 2.25  65 2.27  62 2.32
 179  0.429  0.734  0.648- 142 2.34  30 2.65  66 2.65
 180  0.976  0.607  0.903-  20 2.33  26 2.33  24 2.34  11 2.38   6 2.48  59 2.59
 181  0.250  0.472  0.800-  76 2.26  27 2.29  78 2.29  21 2.38  25 2.64
 182  0.392  0.188  0.011-  32 2.25  33 2.26  74 2.40  31 2.46  34 2.48
 183  0.737  0.246  0.766-  96 2.19  41 2.21  38 2.32  72 2.34  42 2.34
 184  0.250  0.180  0.767-  91 2.28  75 2.36  94 2.41  76 2.53  74 2.61
 185  0.048  0.361  0.338-  48 1.94  53 2.30  50 2.52  60 2.54
 186  0.979  0.516  0.117- 154 2.12  56 2.17  52 2.37  20 2.44
 187  0.334  0.899  0.769-  66 2.13  63 2.16  61 2.26  44 2.42  62 2.52  65 2.63
 188  0.922  0.842  0.400-  70 2.34  68 2.34  69 2.36  71 2.38  67 2.39 207 2.72
 189  0.004  0.209  0.791-  75 2.17  29 2.26  41 2.46  73 2.46
 190  0.525  0.445  0.260- 121 1.89  35 2.23 130 2.54  82 2.66
 191  0.569  0.919  0.247-  88 2.13   5 2.19  89 2.25  90 2.32  86 2.38
 192  0.469  0.125  0.623- 139 2.14  93 2.21  47 2.23 119 2.76
 193  0.547  0.949  0.004-  22 2.04  39 2.30  33 2.37  86 2.43
 194  0.387  0.045  0.166-  32 1.81  89 2.07
 195  0.249  0.437  0.433-  49 2.16  60 2.23
 196  0.549  0.759  0.889-  28 2.12   2 2.23  22 2.25
 197  0.386  0.648  0.803-  27 1.84  28 2.14  30 2.41  66 2.49  25 2.52
 198  0.161  0.160  0.994-  31 2.07  36 2.34
 199  0.861  0.208  0.579-  46 2.00  38 2.04  37 2.14
 200  0.082  0.248  0.583-  46 2.10  29 2.14  94 2.43
 201  0.085  0.715  0.057-  77 2.26  59 2.32  10 2.41  56 2.54
 202  0.068  0.844  0.272-   8 2.07  58 2.23  69 2.59
 203  0.095  0.940  0.784-  19 1.85  64 2.15
 204  0.959  0.797  0.765-  64 2.05   6 2.29
 205  0.063  0.432  0.956-  26 2.22  73 2.23  20 2.37  78 2.50
 206  0.784  0.654  0.486-  70 2.35
 207  0.905  0.009  0.387-  68 2.12  85 2.36 188 2.72
 208  0.259  0.387  0.624-  21 1.99  13 2.07
 

IMPORTANT INFORMATION: All symmetrisations will be switched off!
NOSYMM: (Re-)initialisation of all symmetry stuff for point group C_1.

 
 
 KPOINTS: Regular mesh centered at Gamma          

Automatic generation of k-mesh.
Space group operators:
 irot       det(A)        alpha          n_x          n_y          n_z        tau_x        tau_y        tau_z
    1     1.000000     0.000001     1.000000     0.000000     0.000000     0.000000     0.000000     0.000000
 
 Subroutine IBZKPT returns following result:
 ===========================================
 
 Found      1 irreducible k-points:
 
 Following reciprocal coordinates:
            Coordinates               Weight
  0.000000  0.000000  0.000000      1.000000
 
 Following cartesian coordinates:
            Coordinates               Weight
  0.000000  0.000000  0.000000      1.000000
 


--------------------------------------------------------------------------------------------------------




 Dimension of arrays:
   k-points           NKPTS =      1   k-points in BZ     NKDIM =      1   number of bands    NBANDS=    592
   number of dos      NEDOS =    301   number of ions     NIONS =    208
   non local maximal  LDIM  =      4   non local SUM 2l+1 LMDIM =      8
   total plane-waves  NPLWV = 729000
   max r-space proj   IRMAX =      1   max aug-charges    IRDMAX=   5618
   dimension x,y,z NGX =    90 NGY =   90 NGZ =   90
   dimension x,y,z NGXF=   180 NGYF=  180 NGZF=  180
   support grid    NGXF=   180 NGYF=  180 NGZF=  180
   ions per type =              96  16  80  16
   NGX,Y,Z   is equivalent  to a cutoff of   9.34,  9.29,  9.11 a.u.
   NGXF,Y,Z  is equivalent  to a cutoff of  18.67, 18.59, 18.22 a.u.

 SYSTEM =  LPSC                                    
 POSCAR =  New POSCAR file                         

 Startparameter for this run:
   NWRITE =      2    write-flag & timer
   PREC   = normal    normal or accurate (medium, high low for compatibility)
   ISTART =      0    job   : 0-new  1-cont  2-samecut
   ICHARG =      2    charge: 1-file 2-atom 10-const
   ISPIN  =      1    spin polarized calculation?
   LNONCOLLINEAR =      F non collinear calculations
   LSORBIT =      F    spin-orbit coupling
   INIWAV =      1    electr: 0-lowe 1-rand  2-diag
   LASPH  =      F    aspherical Exc in radial PAW
   METAGGA=      F    non-selfconsistent MetaGGA calc.

 Electronic Relaxation 1
   ENCUT  =  500.0 eV  36.75 Ry    6.06 a.u.  29.22 29.35 29.95*2*pi/ulx,y,z
   ENINI  =  500.0     initial cutoff
   ENAUG  =  628.9 eV  augmentation charge cutoff
   NELM   =    100;   NELMIN=  2; NELMDL=-12     # of ELM steps 
   EDIFF  = 0.1E-05   stopping-criterion for ELM
   LREAL  =      F    real-space projection
   NLSPLINE    = F    spline interpolate recip. space projectors
   LCOMPAT=      F    compatible to vasp.4.4
   GGA_COMPAT  = T    GGA compatible to vasp.4.4-vasp.4.6
   LMAXPAW     = -100 max onsite density
   LMAXMIX     =    2 max onsite mixed and CHGCAR
   VOSKOWN=      0    Vosko Wilk Nusair interpolation
   ROPT   =    0.00000   0.00000   0.00000   0.00000
 Ionic relaxation
   EDIFFG = -.1E-01   stopping-criterion for IOM
   NSW    =      1    number of steps for IOM
   NBLOCK =      1;   KBLOCK =      1    inner block; outer block 
   IBRION =      2    ionic relax: 0-MD 1-quasi-New 2-CG
   NFREE  =      1    steps in history (QN), initial steepest desc. (CG)
   ISIF   =      2    stress and relaxation
   IWAVPR =     11    prediction:  0-non 1-charg 2-wave 3-comb
   ISYM   =      0    0-nonsym 1-usesym 2-fastsym
   LCORR  =      T    Harris-Foulkes like correction to forces

   POTIM  = 0.5000    time-step for ionic-motion
   TEIN   =    0.0    initial temperature
   TEBEG  =    0.0;   TEEND  =   0.0 temperature during run
   SMASS  =  -3.00    Nose mass-parameter (am)
   estimated Nose-frequenzy (Omega)   =  0.10E-29 period in steps =****** mass=  -0.587E-26a.u.
   SCALEE = 1.0000    scale energy and forces
   NPACO  =    256;   APACO  = 16.0  distance and # of slots for P.C.
   PSTRESS=    0.0 pullay stress

  Mass of Ions in am
   POMASS =   7.01 30.97 32.07 35.45
  Ionic Valenz
   ZVAL   =   3.00  5.00  6.00  7.00
  Atomic Wigner-Seitz radii
   RWIGS  =  -1.00 -1.00 -1.00 -1.00
  virtual crystal weights 
   VCA    =   1.00  1.00  1.00  1.00
   NELECT =     960.0000    total number of electrons
   NUPDOWN=      -1.0000    fix difference up-down

 DOS related values:
   EMIN   =  10.00;   EMAX   =-10.00  energy-range for DOS
   EFERMI =   0.00
   ISMEAR =     0;   SIGMA  =   0.05  broadening in eV -4-tet -1-fermi 0-gaus

 Electronic relaxation 2 (details)
   IALGO  =     48    algorithm
   LDIAG  =      T    sub-space diagonalisation (order eigenvalues)
   LSUBROT=      F    optimize rotation matrix (better conditioning)
   TURBO    =      0    0=normal 1=particle mesh
   IRESTART =      0    0=no restart 2=restart with 2 vectors
   NREBOOT  =      0    no. of reboots
   NMIN     =      0    reboot dimension
   EREF     =   0.00    reference energy to select bands
   IMIX   =      4    mixing-type and parameters
     AMIX     =   0.40;   BMIX     =  1.00
     AMIX_MAG =   1.60;   BMIX_MAG =  1.00
     AMIN     =   0.10
     WC   =   100.;   INIMIX=   1;  MIXPRE=   1;  MAXMIX= -45

 Intra band minimization:
   WEIMIN = 0.0010     energy-eigenvalue tresh-hold
   EBREAK =  0.42E-09  absolut break condition
   DEPER  =   0.30     relativ break condition  

   TIME   =   0.40     timestep for ELM

  volume/ion in A,a.u.               =      20.38       137.50
  Fermi-wavevector in a.u.,A,eV,Ry     =   0.997951  1.885854 13.550121  0.995906
  Thomas-Fermi vector in A             =   2.130142
 
 Write flags
   LWAVE        =      F    write WAVECAR
   LDOWNSAMPLE  =      F    k-point downsampling of WAVECAR
   LCHARG       =      F    write CHGCAR
   LVTOT        =      F    write LOCPOT, total local potential
   LVHAR        =      F    write LOCPOT, Hartree potential only
   LELF         =      F    write electronic localiz. function (ELF)
   LORBIT       =     11    0 simple, 1 ext, 2 COOP (PROOUT), +10 PAW based schemes


 Dipole corrections
   LMONO  =      F    monopole corrections only (constant potential shift)
   LDIPOL =      F    correct potential (dipole corrections)
   IDIPOL =      0    1-x, 2-y, 3-z, 4-all directions 
   EPSILON=  1.0000000 bulk dielectric constant

 Exchange correlation treatment:
   GGA     =    --    GGA type
   LEXCH   =     8    internal setting for exchange type
   VOSKOWN=      0    Vosko Wilk Nusair interpolation
   LHFCALC =     F    Hartree Fock is set to
   LHFONE  =     F    Hartree Fock one center treatment
   AEXX    =    0.0000 exact exchange contribution

 Linear response parameters
   LEPSILON=     F    determine dielectric tensor
   LRPA    =     F    only Hartree local field effects (RPA)
   LNABLA  =     F    use nabla operator in PAW spheres
   LVEL    =     F    velocity operator in full k-point grid
   LINTERFAST=   F  fast interpolation
   KINTER  =     0    interpolate to denser k-point grid
   CSHIFT  =0.1000    complex shift for real part using Kramers Kronig
   OMEGAMAX=  -1.0    maximum frequency
   DEG_THRESHOLD= 0.2000000E-02 threshold for treating states as degnerate
   RTIME   =   -0.100 relaxation time in fs
  (WPLASMAI=    0.000 imaginary part of plasma frequency in eV, 0.658/RTIME)
   DFIELD  = 0.0000000 0.0000000 0.0000000 field for delta impulse in time
 
 Orbital magnetization related:
   ORBITALMAG=     F  switch on orbital magnetization
   LCHIMAG   =     F  perturbation theory with respect to B field
   DQ        =  0.001000  dq finite difference perturbation B field
   LLRAUG    =     F  two centre corrections for induced B field



--------------------------------------------------------------------------------------------------------


 conjugate gradient relaxation of ions
 charge density and potential will be updated during run
 non-spin polarized calculation
 RMM-DIIS sequential band-by-band
 perform sub-space diagonalisation
    before iterative eigenvector-optimisation
 modified Broyden-mixing scheme, WC =      100.0
 initial mixing is a Kerker type mixing with AMIX =  0.4000 and BMIX =      1.0000
 Hartree-type preconditioning will be used
 using additional bands          112
 reciprocal scheme for non local part
 use partial core corrections
 calculate Harris-corrections to forces 
   (improved forces if not selfconsistent)
 use gradient corrections 
 use of overlap-Matrix (Vanderbilt PP)
 Gauss-broadening in eV      SIGMA  =   0.05


--------------------------------------------------------------------------------------------------------


  energy-cutoff  :      500.00
  volume of cell :     4238.07
      direct lattice vectors                 reciprocal lattice vectors
    16.026082000  0.000000000  0.000000000     0.062398283  0.000000000  0.000000000
     0.000000000 16.100000000  0.000000000     0.000000000  0.062111801  0.000000000
     0.000000000  0.000000000 16.425367000     0.000000000  0.000000000  0.060881440

  length of vectors
    16.026082000 16.100000000 16.425367000     0.062398283  0.062111801  0.060881440


 
 k-points in units of 2pi/SCALE and weight: Regular mesh centered at Gamma          
   0.00000000  0.00000000  0.00000000       1.000
 
 k-points in reciprocal lattice and weights: Regular mesh centered at Gamma          
   0.00000000  0.00000000  0.00000000       1.000
 
 position of ions in fractional coordinates (direct lattice) 
   0.72644705  0.83420497  0.17839358
   0.60699802  0.67897516  0.98432504
   0.65803357  0.65147826  0.18125927
   0.78954419  0.89636646  0.02264047
   0.58641719  0.78567081  0.26853829
   0.90789502  0.74383230  0.88416898
   0.23310189  0.01938733  0.03915018
   0.19673180  0.85510559  0.27287792
   0.07926766  0.03211615  0.35350687
   0.23268257  0.69957143  0.07810115
   0.10778430  0.67529814  0.89571819
   0.30827622  0.83521739  0.44000722
   0.32542639  0.49724596  0.63184585
   0.56243067  0.78939130  0.53762452
   0.68844026  0.87041615  0.76974840
   0.37507046  0.62033851  0.43551843
   0.71462882  0.53732174  0.72873258
   0.16024253  0.75209938  0.61415979
   0.01206346  0.92986335  0.86202640
   0.93045200  0.49309689  0.97858392
   0.16721866  0.44465093  0.68358899
   0.51476462  0.89431056  0.89646703
   0.99520894  0.63204348  0.73835793
   0.85897476  0.53183602  0.85949373
   0.40105061  0.50215093  0.85819087
   0.06321320  0.50734472  0.84343930
   0.27691672  0.61207764  0.79756513
   0.42886901  0.70914907  0.91087767
   0.04929895  0.30100559  0.69760998
   0.51408760  0.62104286  0.73011458
   0.25130596  0.24594907  0.02651575
   0.38630590  0.15492360  0.14428049
   0.46847009  0.07147143  0.02846974
   0.44284373  0.32188447  0.06814033
   0.62480025  0.37583727  0.19341790
   0.12029141  0.19185404  0.12698651
   0.82397557  0.11306460  0.49500934
   0.79008082  0.29114907  0.64258534
   0.59213599  0.03185404  0.89865876
   0.57582009  0.27880186  0.63804967
   0.85335268  0.17902484  0.79498376
   0.74009979  0.31075031  0.89351428
   0.47086431  0.23852112  0.37321662
   0.23222707  0.99521739  0.71345742
   0.33338217  0.07146894  0.32362991
   0.97401224  0.19000994  0.62707883
   0.40205772  0.07362174  0.51511787
   0.94324988  0.32729876  0.38704767
   0.37350239  0.42767888  0.38362248
   0.00676959  0.23347143  0.25905662
   0.19381718  0.24756894  0.30786466
   0.95535515  0.39048323  0.18892546
   0.10500633  0.46878820  0.26511371
   0.30127763  0.44954410  0.22833219
   0.78576286  0.61107826  0.28897741
   0.10383074  0.56694534  0.10598972
   0.78789064  0.51489193  0.11136494
   0.11211911  0.71295031  0.27860321
   0.94660691  0.67560248  0.04193197
   0.11291718  0.46594596  0.43506912
   0.42219053  0.00862615  0.77457021
   0.34643152  0.92569565  0.92031429
   0.36370274  0.89545342  0.64097198
   0.08176733  0.81717391  0.73495466
   0.21048314  0.84954037  0.86282395
   0.30795362  0.77072050  0.75247634
   0.04981579  0.81209938  0.46863184
   0.87139202  0.94053416  0.49247362
   0.92658954  0.76736025  0.27638591
   0.90923658  0.72850932  0.48867523
   0.77879921  0.80163975  0.39214832
   0.75072622  0.13180683  0.67866977
   0.01025472  0.33697329  0.87247974
   0.36998563  0.15209130  0.87112209
   0.12111569  0.15262919  0.82940004
   0.23279489  0.33275217  0.79973251
   0.11164550  0.85321118  0.06215508
   0.21452093  0.46147516  0.93490149
   0.58273944  0.41726025  0.44110126
   0.50295075  0.56682484  0.10727979
   0.71619501  0.25127640  0.28976461
   0.52930966  0.60401304  0.30295092
   0.41201087  0.70578261  0.24949336
   0.76064755  0.45111553  0.37383822
   0.80143731  0.02617969  0.28661034
   0.51996676  0.86201242  0.12197718
   0.65402760  0.70667702  0.39999472
   0.66817953  0.93193168  0.33194509
   0.48351681  0.02935609  0.24746966
   0.50512284  0.93690683  0.37222304
   0.37443587  0.23261491  0.72263226
   0.84157812  0.51017329  0.56059021
   0.54562681  0.10904099  0.73393794
   0.22092986  0.20383106  0.62472881
   0.58043444  0.10115776  0.46468368
   0.64879863  0.17048758  0.83676669
   0.69431193  0.92503727  0.58090513
   0.63032874  0.68754037  0.60443581
   0.35479601  0.28998944  0.22002979
   0.20210804  0.97656522  0.52422329
   0.95365792  0.52687329  0.41278164
   0.88550651  0.43100683  0.72984062
   0.52385792  0.34000124  0.57982449
   0.12664480  0.60659876  0.52570150
   0.59138410  0.10971553  0.24983551
   0.78359140  0.00928124  0.85397179
   0.92240262  0.85835404  0.12692441
   0.34687206  0.53704720  0.05361859
   0.84061719  0.25600186  0.18820828
   0.68597552  0.48151056  0.96213984
   0.27963479  0.66190683  0.26682083
   0.49649939  0.41387329  0.85840396
   0.69708242  0.05245416  0.56263705
   0.65775278  0.86998758  0.47208443
   0.59542501  0.88849068  0.65722124
   0.78945060  0.86258385  0.62460705
   0.67808838  0.67127329  0.71059599
   0.72568579  0.73859627  0.27328765
   0.48742294  0.95695031  0.64888048
   0.50121858  0.69113043  0.43434159
   0.43961462  0.40024099  0.19379719
   0.33312571  0.28965217  0.34295672
   0.11592665  0.13229379  0.26239962
   0.22748355  0.33907950  0.17816832
   0.24560838  0.97477019  0.39838318
   0.28028622  0.04525329  0.57159940
   0.25222260  0.84508696  0.57881203
   0.09189957  0.94187578  0.51111552
   0.90087521  0.45757764  0.43089753
   0.65080785  0.51854224  0.31963791
   0.07316635  0.60021615  0.39949001
   0.67738328  0.30294907  0.43066618
   0.86829083  0.39876770  0.85855616
   0.03969579  0.43099938  0.75410187
   0.86007297  0.56259876  0.71940554
   0.69529159  0.47674845  0.54480366
   0.55308715  0.58701925  0.59455901
   0.47598845  0.42429255  0.53309737
   0.42383909  0.24725404  0.59575168
   0.59289039  0.24487888  0.47833939
   0.02563771  0.68414286  0.57683947
   0.34461324  0.63636025  0.58157300
   0.06583892  0.50606087  0.56925547
   0.17369248  0.70965839  0.76918220
   0.46752288  0.08979814  0.38230013
   0.69088627  0.09229317  0.14423422
   0.69199072  0.08625093  0.36329295
   0.57578640  0.25047329  0.26919703
   0.74945330  0.09645404  0.94156800
   0.67617899  0.00782863  0.77787607
   0.80235456  0.88462733  0.88003513
   0.87273359  0.04004516  0.77180011
   0.84317552  0.94192547  0.16383683
   0.92424337  0.57479938  0.21965537
   0.99337443  0.90042857  0.03296066
   0.84317552  0.75896894  0.07654380
   0.35588736  0.57164410  0.28802949
   0.44249181  0.56920186  0.98128705
   0.23308691  0.60323789  0.97447442
   0.32566537  0.40651242  0.00991923
   0.85208599  0.19490248  0.29509478
   0.72888682  0.20821988  0.11420141
   0.94975803  0.25711304  0.11924422
   0.80319070  0.37408137  0.22231467
   0.62926796  0.51151366  0.10007387
   0.59459511  0.38468944  0.94704124
   0.79469205  0.41120559  0.00559091
   0.72319610  0.58618882  0.91878617
   0.17395955  0.59123727  0.21638542
   0.28053582  0.76832298  0.19229829
   0.45425950  0.78603727  0.37451766
   0.24366842  0.71406832  0.36431271
   0.50078803  0.27965404  0.77979993
   0.70829539  0.42650373  0.63970565
   0.51272544  0.10294969  0.86520441
   0.56332608  0.46012733  0.76278357
   0.53548522  0.69580745  0.16775211
   0.22864977  0.88843478  0.99430351
   0.42852146  0.73424224  0.64804031
   0.97617746  0.60655590  0.90264041
   0.25047794  0.47228634  0.80015259
   0.39231423  0.18820932  0.01121704
   0.73665541  0.24578075  0.76604072
   0.25040681  0.17997764  0.76670433
   0.04816991  0.36100248  0.33830538
   0.97899162  0.51589379  0.11729966
   0.33400366  0.89946584  0.76932223
   0.92168504  0.84174534  0.39975545
   0.00403847  0.20850186  0.79112388
   0.52500355  0.44512671  0.25965508
   0.56906797  0.91887578  0.24693025
   0.46932494  0.12512981  0.62262840
   0.54730158  0.94924224  0.00401189
   0.38681819  0.04451261  0.16551046
   0.24884123  0.43659193  0.43265761
   0.54923156  0.75885093  0.88872900
   0.38613118  0.64754037  0.80307490
   0.16102875  0.16000497  0.99391995
   0.86099647  0.20826708  0.57863608
   0.08221036  0.24752857  0.58295136
   0.08493280  0.71525466  0.05676348
   0.06814142  0.84443478  0.27230929
   0.09516674  0.94036646  0.78439039
   0.95898673  0.79675776  0.76468307
   0.06285067  0.43196832  0.95642916
   0.78374115  0.65357764  0.48614743
   0.90508086  0.00914894  0.38721631
   0.25875382  0.38707391  0.62402867
 
 position of ions in cartesian coordinates  (Angst):
  11.64210000 13.43070000  2.93018000
   9.72780000 10.93150000 16.16790000
  10.54570000 10.48880000  2.97725000
  12.65330000 14.43150000  0.37187800
   9.39797000 12.64930000  4.41084000
  14.55000000 11.97570000 14.52280000
   3.73571000  0.31213600  0.64305600
   3.15284000 13.76720000  4.48212000
   1.27035000  0.51707000  5.80648000
   3.72899000 11.26310000  1.28284000
   1.72736000 10.87230000 14.71250000
   4.94046000 13.44700000  7.22728000
   5.21531000  8.00566000 10.37830000
   9.01356000 12.70920000  8.83068000
  11.03300000 14.01370000 12.64340000
   6.01091000  9.98745000  7.15355000
  11.45270000  8.65088000 11.96970000
   2.56806000 12.10880000 10.08780000
   0.19333000 14.97080000 14.15910000
  14.91150000  7.93886000 16.07360000
   2.67986000  7.15888000 11.22820000
   8.24966000 14.39840000 14.72480000
  15.94930000 10.17590000 12.12780000
  13.76600000  8.56256000 14.11750000
   6.42727000  8.08463000 14.09610000
   1.01306000  8.16825000 13.85380000
   4.43789000  9.85445000 13.10030000
   6.87309000 11.41730000 14.96150000
   0.79006900  4.84619000 11.45850000
   8.23881000  9.99879000 11.99240000
   4.02745000  3.95978000  0.43553100
   6.19097000  2.49427000  2.36986000
   7.50774000  1.15069000  0.46762600
   7.09705000  5.18234000  1.11923000
  10.01310000  6.05098000  3.17696000
   1.92780000  3.08885000  2.08580000
  13.20510000  1.82034000  8.13071000
  12.66190000  4.68750000 10.55470000
   9.48962000  0.51285000 14.76080000
   9.22814000  4.48871000 10.48020000
  13.67590000  2.88230000 13.05790000
  11.86090000  5.00308000 14.67630000
   7.54611000  3.84019000  6.13022000
   3.72169000 16.02300000 11.71880000
   5.34281000  1.15065000  5.31574000
  15.60960000  3.05916000 10.30000000
   6.44341000  1.18531000  8.46100000
  15.11660000  5.26951000  6.35740000
   5.98578000  6.88563000  6.30114000
   0.10849000  3.75889000  4.25510000
   3.10613000  3.98586000  5.05679000
  15.31060000  6.28678000  3.10317000
   1.68284000  7.54749000  4.35459000
   4.82830000  7.23766000  3.75044000
  12.59270000  9.83836000  4.74656000
   1.66400000  9.12782000  1.74092000
  12.62680000  8.28976000  1.82921000
   1.79683000 11.47850000  4.57616000
  15.17040000 10.87720000  0.68874800
   1.80962000  7.50173000  7.14617000
   6.76606000  0.13888100 12.72260000
   5.55194000 14.90370000 15.11650000
   5.82873000 14.41680000 10.52820000
   1.31041000 13.15650000 12.07190000
   3.37322000 13.67760000 14.17220000
   4.93529000 12.40860000 12.35970000
   0.79835200 13.07480000  7.69745000
  13.96500000 15.14260000  8.08906000
  14.84960000 12.35450000  4.53974000
  14.57150000 11.72900000  8.02667000
  12.48110000 12.90640000  6.44118000
  12.03120000  2.12209000 11.14740000
   0.16434300  5.42527000 14.33080000
   5.92942000  2.44867000 14.30850000
   1.94101000  2.45733000 13.62320000
   3.73079000  5.35731000 13.13590000
   1.78924000 13.73670000  1.02092000
   3.43793000  7.42975000 15.35610000
   9.33903000  6.71789000  7.24525000
   8.06033000  9.12588000  1.76211000
  11.47780000  4.04555000  4.75949000
   8.48276000  9.72461000  4.97608000
   6.60292000 11.36310000  4.09802000
  12.19020000  7.26296000  6.14043000
  12.84390000  0.42149300  4.70768000
   8.33303000 13.87840000  2.00352000
  10.48150000 11.37750000  6.57006000
  10.70830000 15.00410000  5.45232000
   7.74888000  0.47263300  4.06478000
   8.09514000 15.08420000  6.11390000
   6.00074000  3.74510000 11.86950000
  13.48720000  8.21379000  9.20790000
   8.74426000  1.75556000 12.05520000
   3.54064000  3.28168000 10.26140000
   9.30209000  1.62864000  7.63260000
  10.39770000  2.74485000 13.74420000
  11.12710000 14.89310000  9.54158000
  10.10170000 11.06940000  9.92808000
   5.68599000  4.66883000  3.61407000
   3.23900000 15.72270000  8.61056000
  15.28340000  8.48266000  6.78009000
  14.19120000  6.93921000 11.98790000
   8.39539000  5.47402000  9.52383000
   2.02962000  9.76624000  8.63484000
   9.47757000  1.76642000  4.10364000
  12.55790000  0.14942800 14.02680000
  14.78250000 13.81950000  2.08478000
   5.55900000  8.64646000  0.88070500
  13.47180000  4.12163000  3.09139000
  10.99350000  7.75232000 15.80350000
   4.48145000 10.65670000  4.38263000
   7.95694000  6.66336000 14.09960000
  11.17150000  0.84451200  9.24152000
  10.54120000 14.00680000  7.75416000
   9.54233000 14.30470000 10.79510000
  12.65180000 13.88760000 10.25940000
  10.86710000 10.80750000 11.67180000
  11.62990000 11.89140000  4.48885000
   7.81148000 15.40690000 10.65810000
   8.03257000 11.12720000  7.13422000
   7.04530000  6.44388000  3.18319000
   5.33870000  4.66340000  5.63319000
   1.85785000  2.12993000  4.31001000
   3.64567000  5.45918000  2.92648000
   3.93614000 15.69380000  6.54359000
   4.49189000  0.72857800  9.38873000
   4.04214000 13.60590000  9.50720000
   1.47279000 15.16420000  8.39526000
  14.43750000  7.36700000  7.07765000
  10.42990000  8.34853000  5.25017000
   1.17257000  9.66348000  6.56177000
  10.85580000  4.87748000  7.07385000
  13.91530000  6.42016000 14.10210000
   0.63616800  6.93909000 12.38640000
  13.78360000  9.05784000 11.81650000
  11.14280000  7.67565000  8.94860000
   8.86382000  9.45101000  9.76585000
   7.62823000  6.83111000  8.75632000
   6.79248000  3.98079000  9.78544000
   9.50171000  3.94255000  7.85690000
   0.41087200 11.01470000  9.47480000
   5.52280000 10.24540000  9.55255000
   1.05514000  8.14758000  9.35023000
   2.78361000 11.42550000 12.63410000
   7.49256000  1.44575000  6.27942000
  11.07220000  1.48592000  2.36910000
  11.08990000  1.38864000  5.96722000
   9.22760000  4.03262000  4.42166000
  12.01080000  1.55291000 15.46560000
  10.83650000  0.12604100 12.77690000
  12.85860000 14.24250000 14.45490000
  13.98650000  0.64472700 12.67710000
  13.51280000 15.16500000  2.69108000
  14.81200000  9.25427000  3.60792000
  15.91990000 14.49690000  0.54139100
  13.51280000 12.21940000  1.25726000
   5.70348000  9.20347000  4.73099000
   7.09141000  9.16415000 16.11800000
   3.73547000  9.71213000 16.00610000
   5.21914000  6.54485000  0.16292700
  13.65560000  3.13793000  4.84704000
  11.68120000  3.35234000  1.87580000
  15.22090000  4.13952000  1.95863000
  12.87200000  6.02271000  3.65160000
  10.08470000  8.23537000  1.64375000
   9.52903000  6.19350000 15.55550000
  12.73580000  6.62041000  0.09183270
  11.59000000  9.43764000 15.09140000
   2.78789000  9.51892000  3.55421000
   4.49589000 12.37000000  3.15857000
   7.28000000 12.65520000  6.15159000
   3.90505000 11.49650000  5.98397000
   8.02567000  4.50243000 12.80850000
  11.35120000  6.86671000 10.50740000
   8.21698000  1.65749000 14.21130000
   9.02791000  7.40805000 12.52900000
   8.58173000 11.20250000  2.75539000
   3.66436000 14.30380000 16.33180000
   6.86752000 11.82130000 10.64430000
  15.64430000  9.76555000 14.82620000
   4.01418000  7.60381000 13.14280000
   6.28726000  3.03017000  0.18424400
  11.80570000  3.95707000 12.58250000
   4.01304000  2.89764000 12.59340000
   0.77197500  5.81214000  5.55679000
  15.68940000  8.30589000  1.92669000
   5.35277000 14.48140000 12.63640000
  14.77100000 13.55210000  6.56613000
   0.06472080  3.35688000 12.99450000
   8.41375000  7.16654000  4.26493000
   9.11993000 14.79390000  4.05592000
   7.52144000  2.01459000 10.22690000
   8.77110000 15.28280000  0.06589670
   6.19918000  0.71665300  2.71857000
   3.98795000  7.02913000  7.10656000
   8.80203000 12.21750000 14.59770000
   6.18817000 10.42540000 13.19080000
   2.58066000  2.57608000 16.32550000
  13.79840000  3.35310000  9.50431000
   1.31751000  3.98521000  9.57519000
   1.36114000 11.51560000  0.93236100
   1.09204000 13.59540000  4.47278000
   1.52515000 15.13990000 12.88390000
  15.36880000 12.82780000 12.56020000
   1.00725000  6.95469000 15.70970000
  12.56030000 10.52260000  7.98515000
  14.50490000  0.14729800  6.36017000
   4.14681000  6.23189000 10.24990000
 


--------------------------------------------------------------------------------------------------------


 k-point  1 :   0.0000 0.0000 0.0000  plane waves:  107615

 maximum and minimum number of plane-waves per node :     13456    13445

 maximum number of plane-waves:    107615
 maximum index in each direction: 
   IXMAX=   29   IYMAX=   29   IZMAX=   29
   IXMIN=  -29   IYMIN=  -29   IZMIN=  -29


 parallel 3D FFT for wavefunctions:
    minimum data exchange during FFTs selected (reduces bandwidth)
 parallel 3D FFT for charge:
    minimum data exchange during FFTs selected (reduces bandwidth)


 total amount of memory used by VASP MPI-rank0   111673. kBytes
=======================================================================

   base      :      30000. kBytes
   nonl-proj :      48226. kBytes
   fftplans  :       6264. kBytes
   grid      :      10964. kBytes
   one-center:         79. kBytes
   wavefun   :      16140. kBytes
 
     INWAV:  cpu time    0.0000: real time    0.0000
 Broyden mixing: mesh for mixing (old mesh)
   NGX = 59   NGY = 59   NGZ = 59
  (NGX  =180   NGY  =180   NGZ  =180)
  gives a total of 205379 points

 initial charge density was supplied:
 charge density of overlapping atoms calculated
 number of electron     960.0000000 magnetization 
 keeping initial charge density in first step


--------------------------------------------------------------------------------------------------------


 Maximum index for augmentation-charges          363 (set IRDMAX)


--------------------------------------------------------------------------------------------------------


 First call to EWALD:  gamma=   0.110
 Maximum number of real-space cells 3x 3x 3
 Maximum number of reciprocal cells 3x 3x 3

    FEWALD:  cpu time    0.0107: real time    0.0108


--------------------------------------- Iteration      1(   1)  ---------------------------------------


    POTLOK:  cpu time    0.0848: real time    0.0858
    SETDIJ:  cpu time    0.0083: real time    0.0083
    EDDIAG:  cpu time    0.9561: real time    0.9586
  RMM-DIIS:  cpu time    5.4852: real time    5.4884
    ORTHCH:  cpu time    0.2622: real time    0.2623
       DOS:  cpu time    0.0008: real time    0.0008
    --------------------------------------------
      LOOP:  cpu time    6.7973: real time    6.8042

 eigenvalue-minimisations  :   592
 total energy-change (2. order) :-0.3783226E+04  (-0.4708914E+05)
 number of electron     960.0000000 magnetization 
 augmentation part      960.0000000 magnetization 

 Free energy of the ion-electron system (eV)
  ---------------------------------------------------
  alpha Z        PSCENC =       804.77846877
  Ewald energy   TEWEN  =    -29411.90796341
  -Hartree energ DENC   =    -12726.08349426
  -exchange      EXHF   =         0.00000000
  -V(xc)+E(xc)   XCENC  =      2536.03068291
  PAW double counting   =     32496.41603574   -33591.34861692
  entropy T*S    EENTRO =        -0.04492189
  eigenvalues    EBANDS =    -14875.05184579
  atomic energy  EATOM  =     50983.98519967
  Solvation  Ediel_sol  =         0.00000000
  ---------------------------------------------------
  free energy    TOTEN  =     -3783.22645518 eV

  energy without entropy =    -3783.18153329  energy(sigma->0) =    -3783.20399423


--------------------------------------------------------------------------------------------------------




--------------------------------------- Iteration      1(   2)  ---------------------------------------


    EDDIAG:  cpu time    0.9564: real time    0.9596
  RMM-DIIS:  cpu time    5.4852: real time    5.4881
    ORTHCH:  cpu time    0.2630: real time    0.2630
       DOS:  cpu time    0.0006: real time    0.0006
    --------------------------------------------
      LOOP:  cpu time    6.7052: real time    6.7113

 eigenvalue-minimisations  :   592
 total energy-change (2. order) : 0.6199180E+04  (-0.7408171E+04)
 number of electron     960.0000000 magnetization 
 augmentation part      960.0000000 magnetization 

 Free energy of the ion-electron system (eV)
  ---------------------------------------------------
  alpha Z        PSCENC =       804.77846877
  Ewald energy   TEWEN  =    -29411.90796341
  -Hartree energ DENC   =    -12726.08349426
  -exchange      EXHF   =         0.00000000
  -V(xc)+E(xc)   XCENC  =      2536.03068291
  PAW double counting   =     32496.41603574   -33591.34861692
  entropy T*S    EENTRO =        -0.05598978
  eigenvalues    EBANDS =     -8675.86042307
  atomic energy  EATOM  =     50983.98519967
  Solvation  Ediel_sol  =         0.00000000
  ---------------------------------------------------
  free energy    TOTEN  =      2415.95389966 eV

  energy without entropy =     2416.00988944  energy(sigma->0) =     2415.98189455


--------------------------------------------------------------------------------------------------------




--------------------------------------- Iteration      1(   3)  ---------------------------------------


    EDDIAG:  cpu time    0.9572: real time    0.9579
  RMM-DIIS:  cpu time    5.4833: real time    5.4863
    ORTHCH:  cpu time    0.2633: real time    0.2636
       DOS:  cpu time    0.0007: real time    0.0007
    --------------------------------------------
      LOOP:  cpu time    6.7045: real time    6.7085

 eigenvalue-minimisations  :   592
 total energy-change (2. order) :-0.1581720E+04  (-0.2355327E+04)
 number of electron     960.0000000 magnetization 
 augmentation part      960.0000000 magnetization 

 Free energy of the ion-electron system (eV)
  ---------------------------------------------------
  alpha Z        PSCENC =       804.77846877
  Ewald energy   TEWEN  =    -29411.90796341
  -Hartree energ DENC   =    -12726.08349426
  -exchange      EXHF   =         0.00000000
  -V(xc)+E(xc)   XCENC  =      2536.03068291
  PAW double counting   =     32496.41603574   -33591.34861692
  entropy T*S    EENTRO =        -0.05800066
  eigenvalues    EBANDS =    -10257.57886813
  atomic energy  EATOM  =     50983.98519967
  Solvation  Ediel_sol  =         0.00000000
  ---------------------------------------------------
  free energy    TOTEN  =       834.23344372 eV

  energy without entropy =      834.29144438  energy(sigma->0) =      834.26244405


--------------------------------------------------------------------------------------------------------




--------------------------------------- Iteration      1(   4)  ---------------------------------------


    EDDIAG:  cpu time    0.9625: real time    0.9633
  RMM-DIIS:  cpu time    5.5267: real time    5.5294
    ORTHCH:  cpu time    0.2639: real time    0.2640
       DOS:  cpu time    0.0006: real time    0.0006
    --------------------------------------------
      LOOP:  cpu time    6.7537: real time    6.7573

 eigenvalue-minimisations  :   592
 total energy-change (2. order) :-0.8330041E+03  (-0.8357375E+03)
 number of electron     960.0000000 magnetization 
 augmentation part      960.0000000 magnetization 

 Free energy of the ion-electron system (eV)
  ---------------------------------------------------
  alpha Z        PSCENC =       804.77846877
  Ewald energy   TEWEN  =    -29411.90796341
  -Hartree energ DENC   =    -12726.08349426
  -exchange      EXHF   =         0.00000000
  -V(xc)+E(xc)   XCENC  =      2536.03068291
  PAW double counting   =     32496.41603574   -33591.34861692
  entropy T*S    EENTRO =        -0.06738287
  eigenvalues    EBANDS =    -11090.57363164
  atomic energy  EATOM  =     50983.98519967
  Solvation  Ediel_sol  =         0.00000000
  ---------------------------------------------------
  free energy    TOTEN  =         1.22929799 eV

  energy without entropy =        1.29668086  energy(sigma->0) =        1.26298943


--------------------------------------------------------------------------------------------------------




--------------------------------------- Iteration      1(   5)  ---------------------------------------


    EDDIAG:  cpu time    0.9711: real time    0.9719
  RMM-DIIS:  cpu time    5.5790: real time    5.5845
    ORTHCH:  cpu time    0.2573: real time    0.2573
       DOS:  cpu time    0.0005: real time    0.0005
    --------------------------------------------
      LOOP:  cpu time    6.8079: real time    6.8142

 eigenvalue-minimisations  :   592
 total energy-change (2. order) :-0.3617980E+03  (-0.3301076E+03)
 number of electron     960.0000000 magnetization 
 augmentation part      960.0000000 magnetization 

 Free energy of the ion-electron system (eV)
  ---------------------------------------------------
  alpha Z        PSCENC =       804.77846877
  Ewald energy   TEWEN  =    -29411.90796341
  -Hartree energ DENC   =    -12726.08349426
  -exchange      EXHF   =         0.00000000
  -V(xc)+E(xc)   XCENC  =      2536.03068291
  PAW double counting   =     32496.41603574   -33591.34861692
  entropy T*S    EENTRO =        -0.00000002
  eigenvalues    EBANDS =    -11452.43906117
  atomic energy  EATOM  =     50983.98519967
  Solvation  Ediel_sol  =         0.00000000
  ---------------------------------------------------
  free energy    TOTEN  =      -360.56874869 eV

  energy without entropy =     -360.56874867  energy(sigma->0) =     -360.56874868


--------------------------------------------------------------------------------------------------------




--------------------------------------- Iteration      1(   6)  ---------------------------------------


    EDDIAG:  cpu time    0.9730: real time    0.9736
  RMM-DIIS:  cpu time    5.4794: real time    5.4821
    ORTHCH:  cpu time    0.2628: real time    0.2628
       DOS:  cpu time    0.0006: real time    0.0006
    --------------------------------------------
      LOOP:  cpu time    6.7157: real time    6.7192

 eigenvalue-minimisations  :   592
 total energy-change (2. order) :-0.1550741E+03  (-0.1411824E+03)
 number of electron     960.0000000 magnetization 
 augmentation part      960.0000000 magnetization 

 Free energy of the ion-electron system (eV)
  ---------------------------------------------------
  alpha Z        PSCENC =       804.77846877
  Ewald energy   TEWEN  =    -29411.90796341
  -Hartree energ DENC   =    -12726.08349426
  -exchange      EXHF   =         0.00000000
  -V(xc)+E(xc)   XCENC  =      2536.03068291
  PAW double counting   =     32496.41603574   -33591.34861692
  entropy T*S    EENTRO =        -0.00104270
  eigenvalues    EBANDS =    -11607.51207614
  atomic energy  EATOM  =     50983.98519967
  Solvation  Ediel_sol  =         0.00000000
  ---------------------------------------------------
  free energy    TOTEN  =      -515.64280634 eV

  energy without entropy =     -515.64176363  energy(sigma->0) =     -515.64228499


--------------------------------------------------------------------------------------------------------




--------------------------------------- Iteration      1(   7)  ---------------------------------------


    EDDIAG:  cpu time    0.9747: real time    0.9759
  RMM-DIIS:  cpu time    5.4834: real time    5.4863
    ORTHCH:  cpu time    0.2629: real time    0.2632
       DOS:  cpu time    0.0007: real time    0.0007
    --------------------------------------------
      LOOP:  cpu time    6.7216: real time    6.7261

 eigenvalue-minimisations  :   592
 total energy-change (2. order) :-0.7486517E+02  (-0.7113766E+02)
 number of electron     960.0000000 magnetization 
 augmentation part      960.0000000 magnetization 

 Free energy of the ion-electron system (eV)
  ---------------------------------------------------
  alpha Z        PSCENC =       804.77846877
  Ewald energy   TEWEN  =    -29411.90796341
  -Hartree energ DENC   =    -12726.08349426
  -exchange      EXHF   =         0.00000000
  -V(xc)+E(xc)   XCENC  =      2536.03068291
  PAW double counting   =     32496.41603574   -33591.34861692
  entropy T*S    EENTRO =        -0.01021893
  eigenvalues    EBANDS =    -11682.36807300
  atomic energy  EATOM  =     50983.98519967
  Solvation  Ediel_sol  =         0.00000000
  ---------------------------------------------------
  free energy    TOTEN  =      -590.50797943 eV

  energy without entropy =     -590.49776050  energy(sigma->0) =     -590.50286997


--------------------------------------------------------------------------------------------------------




--------------------------------------- Iteration      1(   8)  ---------------------------------------


    EDDIAG:  cpu time    0.9410: real time    0.9420
  RMM-DIIS:  cpu time    5.5009: real time    5.5048
    ORTHCH:  cpu time    0.2627: real time    0.2633
       DOS:  cpu time    0.0006: real time    0.0006
    --------------------------------------------
      LOOP:  cpu time    6.7052: real time    6.7108

 eigenvalue-minimisations  :   592
 total energy-change (2. order) :-0.4376002E+02  (-0.4116364E+02)
 number of electron     960.0000000 magnetization 
 augmentation part      960.0000000 magnetization 

 Free energy of the ion-electron system (eV)
  ---------------------------------------------------
  alpha Z        PSCENC =       804.77846877
  Ewald energy   TEWEN  =    -29411.90796341
  -Hartree energ DENC   =    -12726.08349426
  -exchange      EXHF   =         0.00000000
  -V(xc)+E(xc)   XCENC  =      2536.03068291
  PAW double counting   =     32496.41603574   -33591.34861692
  entropy T*S    EENTRO =        -0.03025540
  eigenvalues    EBANDS =    -11726.10806009
  atomic energy  EATOM  =     50983.98519967
  Solvation  Ediel_sol  =         0.00000000
  ---------------------------------------------------
  free energy    TOTEN  =      -634.26800299 eV

  energy without entropy =     -634.23774759  energy(sigma->0) =     -634.25287529


--------------------------------------------------------------------------------------------------------




--------------------------------------- Iteration      1(   9)  ---------------------------------------


    EDDIAG:  cpu time    0.9406: real time    0.9434
  RMM-DIIS:  cpu time   19.5868: real time   19.5998
    ORTHCH:  cpu time    0.2579: real time    0.2585
       DOS:  cpu time    0.0007: real time    0.0007
    --------------------------------------------
      LOOP:  cpu time   20.7860: real time   20.8025

 eigenvalue-minimisations  :  2146
 total energy-change (2. order) :-0.1128035E+03  (-0.1119912E+03)
 number of electron     960.0000000 magnetization 
 augmentation part      960.0000000 magnetization 

 Free energy of the ion-electron system (eV)
  ---------------------------------------------------
  alpha Z        PSCENC =       804.77846877
  Ewald energy   TEWEN  =    -29411.90796341
  -Hartree energ DENC   =    -12726.08349426
  -exchange      EXHF   =         0.00000000
  -V(xc)+E(xc)   XCENC  =      2536.03068291
  PAW double counting   =     32496.41603574   -33591.34861692
  entropy T*S    EENTRO =        -0.04750748
  eigenvalues    EBANDS =    -11838.89433504
  atomic energy  EATOM  =     50983.98519967
  Solvation  Ediel_sol  =         0.00000000
  ---------------------------------------------------
  free energy    TOTEN  =      -747.07153002 eV

  energy without entropy =     -747.02402254  energy(sigma->0) =     -747.04777628


--------------------------------------------------------------------------------------------------------




--------------------------------------- Iteration      1(  10)  ---------------------------------------


    EDDIAG:  cpu time    0.9724: real time    0.9753
  RMM-DIIS:  cpu time   19.5251: real time   19.5482
    ORTHCH:  cpu time    0.2584: real time    0.2590
       DOS:  cpu time    0.0006: real time    0.0006
    --------------------------------------------
      LOOP:  cpu time   20.7564: real time   20.7831

 eigenvalue-minimisations  :  2139
 total energy-change (2. order) :-0.5806280E+02  (-0.5742074E+02)
 number of electron     960.0000000 magnetization 
 augmentation part      960.0000000 magnetization 

 Free energy of the ion-electron system (eV)
  ---------------------------------------------------
  alpha Z        PSCENC =       804.77846877
  Ewald energy   TEWEN  =    -29411.90796341
  -Hartree energ DENC   =    -12726.08349426
  -exchange      EXHF   =         0.00000000
  -V(xc)+E(xc)   XCENC  =      2536.03068291
  PAW double counting   =     32496.41603574   -33591.34861692
  entropy T*S    EENTRO =        -0.03793349
  eigenvalues    EBANDS =    -11896.96670690
  atomic energy  EATOM  =     50983.98519967
  Solvation  Ediel_sol  =         0.00000000
  ---------------------------------------------------
  free energy    TOTEN  =      -805.13432788 eV

  energy without entropy =     -805.09639440  energy(sigma->0) =     -805.11536114


--------------------------------------------------------------------------------------------------------




--------------------------------------- Iteration      1(  11)  ---------------------------------------


    EDDIAG:  cpu time    0.9768: real time    0.9794
  RMM-DIIS:  cpu time   18.8793: real time   18.8947
    ORTHCH:  cpu time    0.2608: real time    0.2617
       DOS:  cpu time    0.0008: real time    0.0008
    --------------------------------------------
      LOOP:  cpu time   20.1177: real time   20.1366

 eigenvalue-minimisations  :  2070
 total energy-change (2. order) :-0.1317831E+02  (-0.1373784E+02)
 number of electron     960.0000000 magnetization 
 augmentation part      960.0000000 magnetization 

 Free energy of the ion-electron system (eV)
  ---------------------------------------------------
  alpha Z        PSCENC =       804.77846877
  Ewald energy   TEWEN  =    -29411.90796341
  -Hartree energ DENC   =    -12726.08349426
  -exchange      EXHF   =         0.00000000
  -V(xc)+E(xc)   XCENC  =      2536.03068291
  PAW double counting   =     32496.41603574   -33591.34861692
  entropy T*S    EENTRO =        -0.03669921
  eigenvalues    EBANDS =    -11910.14624963
  atomic energy  EATOM  =     50983.98519967
  Solvation  Ediel_sol  =         0.00000000
  ---------------------------------------------------
  free energy    TOTEN  =      -818.31263633 eV

  energy without entropy =     -818.27593712  energy(sigma->0) =     -818.29428673


--------------------------------------------------------------------------------------------------------




--------------------------------------- Iteration      1(  12)  ---------------------------------------


    EDDIAG:  cpu time    0.9746: real time    0.9753
  RMM-DIIS:  cpu time   18.8672: real time   18.8811
    ORTHCH:  cpu time    0.2572: real time    0.2573
       DOS:  cpu time    0.0007: real time    0.0007
    CHARGE:  cpu time    0.1990: real time    0.1992
    MIXING:  cpu time    0.0022: real time    0.0027
    --------------------------------------------
      LOOP:  cpu time   20.3010: real time   20.3162

 eigenvalue-minimisations  :  2059
 total energy-change (2. order) :-0.8338122E+01  (-0.8358896E+01)
 number of electron     959.9999710 magnetization 
 augmentation part        5.5481600 magnetization 

 Broyden mixing:
  rms(total) = 0.76367E+01    rms(broyden)= 0.76343E+01
  rms(prec ) = 0.79837E+01
  weight for this iteration     100.00

 Free energy of the ion-electron system (eV)
  ---------------------------------------------------
  alpha Z        PSCENC =       804.77846877
  Ewald energy   TEWEN  =    -29411.90796341
  -Hartree energ DENC   =    -12726.08349426
  -exchange      EXHF   =         0.00000000
  -V(xc)+E(xc)   XCENC  =      2536.03068291
  PAW double counting   =     32496.41603574   -33591.34861692
  entropy T*S    EENTRO =        -0.03631106
  eigenvalues    EBANDS =    -11918.48475936
  atomic energy  EATOM  =     50983.98519967
  Solvation  Ediel_sol  =         0.00000000
  ---------------------------------------------------
  free energy    TOTEN  =      -826.65075791 eV

  energy without entropy =     -826.61444686  energy(sigma->0) =     -826.63260238


--------------------------------------------------------------------------------------------------------




--------------------------------------- Iteration      1(  13)  ---------------------------------------


    POTLOK:  cpu time    0.0811: real time    0.0813
    SETDIJ:  cpu time    0.0069: real time    0.0069
    EDDIAG:  cpu time    0.9425: real time    0.9433
  RMM-DIIS:  cpu time   14.5516: real time   14.5616
    ORTHCH:  cpu time    0.2558: real time    0.2559
       DOS:  cpu time    0.0006: real time    0.0006
    CHARGE:  cpu time    0.2099: real time    0.2099
    MIXING:  cpu time    0.0021: real time    0.0021
    --------------------------------------------
      LOOP:  cpu time   16.0505: real time   16.0617

 eigenvalue-minimisations  :  1582
 total energy-change (2. order) : 0.4385539E+02  (-0.1064594E+02)
 number of electron     959.9999713 magnetization 
 augmentation part        6.2754420 magnetization 

 Broyden mixing:
  rms(total) = 0.50432E+01    rms(broyden)= 0.50432E+01
  rms(prec ) = 0.51655E+01
  weight for this iteration     100.00

 eigenvalues of (default mixing * dielectric matrix)
  average eigenvalue GAMMA=   2.1767
  2.1767

 Free energy of the ion-electron system (eV)
  ---------------------------------------------------
  alpha Z        PSCENC =       804.77846877
  Ewald energy   TEWEN  =    -29411.90796341
  -Hartree energ DENC   =    -13074.27268795
  -exchange      EXHF   =         0.00000000
  -V(xc)+E(xc)   XCENC  =      2560.04017911
  PAW double counting   =     45820.94635335   -46938.18398175
  entropy T*S    EENTRO =        -0.02313809
  eigenvalues    EBANDS =    -11528.15779916
  atomic energy  EATOM  =     50983.98519967
  Solvation  Ediel_sol  =         0.00000000
  ---------------------------------------------------
  free energy    TOTEN  =      -782.79536946 eV

  energy without entropy =     -782.77223137  energy(sigma->0) =     -782.78380041


--------------------------------------------------------------------------------------------------------




--------------------------------------- Iteration      1(  14)  ---------------------------------------


    POTLOK:  cpu time    0.0812: real time    0.0813
    SETDIJ:  cpu time    0.0069: real time    0.0069
    EDDIAG:  cpu time    0.9414: real time    0.9422
  RMM-DIIS:  cpu time   15.2916: real time   15.3013
    ORTHCH:  cpu time    0.2627: real time    0.2629
       DOS:  cpu time    0.0007: real time    0.0007
    CHARGE:  cpu time    0.2008: real time    0.2008
    MIXING:  cpu time    0.0021: real time    0.0021
    --------------------------------------------
      LOOP:  cpu time   16.7874: real time   16.7984

 eigenvalue-minimisations  :  1684
 total energy-change (2. order) : 0.3067265E+01  (-0.8787200E+01)
 number of electron     959.9999718 magnetization 
 augmentation part        5.8201921 magnetization 

 Broyden mixing:
  rms(total) = 0.16572E+01    rms(broyden)= 0.16570E+01
  rms(prec ) = 0.18336E+01
  weight for this iteration     100.00

 eigenvalues of (default mixing * dielectric matrix)
  average eigenvalue GAMMA=   1.7833
  1.2089  2.3577

 Free energy of the ion-electron system (eV)
  ---------------------------------------------------
  alpha Z        PSCENC =       804.77846877
  Ewald energy   TEWEN  =    -29411.90796341
  -Hartree energ DENC   =    -13383.56558699
  -exchange      EXHF   =         0.00000000
  -V(xc)+E(xc)   XCENC  =      2582.65172639
  PAW double counting   =     71501.72935580   -72642.48804239
  entropy T*S    EENTRO =        -0.04642281
  eigenvalues    EBANDS =    -11214.86483998
  atomic energy  EATOM  =     50983.98519967
  Solvation  Ediel_sol  =         0.00000000
  ---------------------------------------------------
  free energy    TOTEN  =      -779.72810495 eV

  energy without entropy =     -779.68168214  energy(sigma->0) =     -779.70489354


--------------------------------------------------------------------------------------------------------




--------------------------------------- Iteration      1(  15)  ---------------------------------------


    POTLOK:  cpu time    0.0806: real time    0.0808
    SETDIJ:  cpu time    0.0069: real time    0.0069
    EDDIAG:  cpu time    0.9533: real time    0.9543
  RMM-DIIS:  cpu time   17.5939: real time   17.6066
    ORTHCH:  cpu time    0.2565: real time    0.2567
       DOS:  cpu time    0.0007: real time    0.0007
    CHARGE:  cpu time    0.1952: real time    0.1953
    MIXING:  cpu time    0.0023: real time    0.0023
    --------------------------------------------
      LOOP:  cpu time   19.0893: real time   19.1034

 eigenvalue-minimisations  :  1917
 total energy-change (2. order) : 0.1783212E-01  (-0.2302326E+01)
 number of electron     959.9999721 magnetization 
 augmentation part        4.5707479 magnetization 

 Broyden mixing:
  rms(total) = 0.79762E+00    rms(broyden)= 0.79721E+00
  rms(prec ) = 0.11207E+01
  weight for this iteration     100.00

 eigenvalues of (default mixing * dielectric matrix)
  average eigenvalue GAMMA=   1.4489
  2.3445  1.4071  0.5953

 Free energy of the ion-electron system (eV)
  ---------------------------------------------------
  alpha Z        PSCENC =       804.77846877
  Ewald energy   TEWEN  =    -29411.90796341
  -Hartree energ DENC   =    -13400.18310865
  -exchange      EXHF   =         0.00000000
  -V(xc)+E(xc)   XCENC  =      2583.76946736
  PAW double counting   =     78324.50964061   -79470.46446073
  entropy T*S    EENTRO =        -0.02618662
[...]
      9.47757      1.76642      4.10364         2.821151      2.568921      1.406844
     12.55790      0.14943     14.02680        -0.698091      0.596081     -1.153235
     14.78250     13.81950      2.08478         1.634988     -2.784556      0.074095
      5.55900      8.64646      0.88070        -2.725913     -1.060579     -1.304461
     13.47180      4.12163      3.09139         0.910334     -0.074852     -0.503909
     10.99350      7.75232     15.80350         0.335386     -1.822966      4.622373
      4.48145     10.65670      4.38263        -4.372158     -0.297726     -2.391821
      7.95694      6.66336     14.09960         2.508441     -3.191510     -2.080077
     11.17150      0.84451      9.24152         0.139226     -0.367416      0.103923
     10.54120     14.00680      7.75416        -0.013537      0.356361     -1.337408
      9.54233     14.30470     10.79510        -0.923347     -0.787467     -0.003290
     12.65180     13.88760     10.25940         0.245994      0.340923      0.258522
     10.86710     10.80750     11.67180         1.054274      1.130077      2.221879
     11.62990     11.89140      4.48885         0.150799      0.240268      0.954687
      7.81148     15.40690     10.65810         1.245138      0.662239     -0.265290
      8.03257     11.12720      7.13422         1.800126     -1.995982      1.076778
      7.04530      6.44388      3.18319        -3.918699     -1.613553     -3.268687
      5.33870      4.66340      5.63319         0.776484     -0.293689      0.439006
      1.85785      2.12993      4.31001         0.353040      0.241408     -0.354872
      3.64567      5.45918      2.92648         0.744794     -1.070601      0.238314
      3.93614     15.69380      6.54359        -0.119283     -0.381805      0.018960
      4.49189      0.72858      9.38873         1.538056      3.852320      3.608877
      4.04214     13.60590      9.50720        -0.207019      1.585317     -1.297515
      1.47279     15.16420      8.39526        -4.259551      1.011481      0.461717
     14.43750      7.36700      7.07765       -29.352251    -40.920052     11.332380
     10.42990      8.34853      5.25017         1.215990      0.998896      0.373249
      1.17257      9.66348      6.56177         1.694029      0.056348      0.029608
     10.85580      4.87748      7.07385         5.022408      3.067374     -2.285188
     13.91530      6.42016     14.10210        -0.498041     -0.241506     -1.654002
      0.63617      6.93909     12.38640        -1.698660     -1.342395     -2.408109
     13.78360      9.05784     11.81650         0.091259     -0.878636     -0.504694
     11.14280      7.67565      8.94860        -0.895009      3.717604     -7.195342
      8.86382      9.45101      9.76585         0.677879      0.077749     -1.115658
      7.62823      6.83111      8.75632        -5.009567      7.502590     -4.517873
      6.79248      3.98079      9.78544        -0.378495     -0.419198     -0.973991
      9.50171      3.94255      7.85690        -4.511934     -2.176489      2.982658
      0.41087     11.01470      9.47480         0.864454      1.606468     -0.240111
      5.52280     10.24540      9.55255         0.883746      1.454581      0.953149
      1.05514      8.14758      9.35023         0.241936     -1.621849      0.008328
      2.78361     11.42550     12.63410        -0.215614      0.683713      0.093746
      7.49256      1.44575      6.27942        -0.856175     -0.930955     -0.027460
     11.07220      1.48592      2.36910        -0.472368      0.486735      0.758968
     11.08990      1.38864      5.96722        -1.590418     -0.557495     -1.549079
      9.22760      4.03262      4.42166        -0.275239     -1.799836     -1.234054
     12.01080      1.55291     15.46560         0.467915     -0.975124     -0.178296
     10.83650      0.12604     12.77690        -0.127084      0.254156      0.555552
     12.85860     14.24250     14.45490        -0.583627      0.257364      0.617094
     13.98650      0.64473     12.67710         0.361448     -0.125544      0.331665
     13.51280     15.16500      2.69108        -2.613744      1.968449      0.315517
     14.81200      9.25427      3.60792        -0.068784      0.194078      0.532765
     15.91990     14.49690      0.54139        -0.887487      1.307192     -1.155196
     13.51280     12.21940      1.25726        -1.135582      0.561354     -0.244470
      5.70348      9.20347      4.73099         2.705884     -0.725326      0.258318
      7.09141      9.16415     16.11800         1.537109      0.700800     -0.701490
      3.73547      9.71213     16.00610         1.256262     -0.571876      1.217786
      5.21914      6.54485      0.16293         0.703722      0.931365      0.278093
     13.65560      3.13793      4.84704         0.539061     -0.355162     -0.217530
     11.68120      3.35234      1.87580         0.383495      0.433763      0.232465
     15.22090      4.13952      1.95863        -0.882048      0.172719      0.327379
     12.87200      6.02271      3.65160        -0.325852      0.247949     -0.124148
     10.08470      8.23537      1.64375         2.012472     -0.207201     -1.504446
      9.52903      6.19350     15.55550         0.057883     -0.473885     -0.418436
     12.73580      6.62041      0.09183        -1.807277      0.532315      0.297869
     11.59000      9.43764     15.09140        -0.102944      1.555535     -1.224587
      2.78789      9.51892      3.55421         1.097989      0.538562      0.640203
      4.49589     12.37000      3.15857         1.414491     -0.645196     -0.802974
      7.28000     12.65520      6.15159        -1.366502      2.398596     -1.702465
      3.90505     11.49650      5.98397        -1.191462      1.059062      3.461474
      8.02567      4.50243     12.80850        -0.299056      0.927813      1.157816
     11.35120      6.86671     10.50740         0.663759     -4.838600      6.681700
      8.21698      1.65749     14.21130        -4.759299      1.987961     -1.371474
      9.02791      7.40805     12.52900        -0.384256      1.547213      0.346868
      8.58173     11.20250      2.75539        -1.438645      0.834456     -0.427504
      3.66436     14.30380     16.33180         0.997243      0.135035     -0.003207
      6.86752     11.82130     10.64430        -0.829730     -0.937294     -1.837450
     15.64430      9.76555     14.82620        -0.602436      1.164815     -0.051937
      4.01418      7.60381     13.14280         0.169486     -0.019709      0.084505
      6.28726      3.03017      0.18424        -0.506228      0.441907      0.292518
     11.80570      3.95707     12.58250        -0.430951      0.248514     -1.018496
      4.01304      2.89764     12.59340         0.338421     -0.194270      0.196657
      0.77198      5.81214      5.55679         2.036120      0.716865     -1.633187
     15.68940      8.30589      1.92669        -0.858606     -0.281365      0.403023
      5.35277     14.48140     12.63640        -0.194809      1.208434      2.572366
     14.77100     13.55210      6.56613        -0.327059     -2.319647      0.839320
      0.06472      3.35688     12.99450        -0.699602      0.219933     -0.348812
      8.41375      7.16654      4.26493         2.102401      1.374505      3.558055
      9.11993     14.79390      4.05592        -0.080730      0.158692     -1.350595
      7.52144      2.01459     10.22690         0.103879      0.445416     -0.136582
      8.77110     15.28280      0.06590         0.018730     -0.123256      1.447665
      6.19918      0.71665      2.71857        -0.950922     -4.236615      0.389395
      3.98795      7.02913      7.10656        -0.000129      0.830677     -0.089487
      8.80203     12.21750     14.59770         0.551230      0.557443     -0.142083
      6.18817     10.42540     13.19080         3.224555      0.563634      0.347449
      2.58066      2.57608     16.32550        -0.730946     -0.888299     -0.016867
     13.79840      3.35310      9.50431        -0.646354     -0.260599     -1.137883
      1.31751      3.98521      9.57519         0.874853     -0.085495     -1.003959
      1.36114     11.51560      0.93236         0.014132     -0.149023      0.255902
      1.09204     13.59540      4.47278        -0.160044     -0.100401     -0.218361
      1.52515     15.13990     12.88390         3.318839      1.313284     -2.137076
     15.36880     12.82780     12.56020        -1.167616     -0.531624      0.303238
      1.00725      6.95469     15.70970         0.739352     -0.588733      1.125280
     12.56030     10.52260      7.98515        -0.004097      0.288909     -0.303203
     14.50490      0.14730      6.36017        -0.191741      2.766521      0.104592
      4.14681      6.23189     10.24990         0.752413     -2.178966     -1.025048
 -----------------------------------------------------------------------------------
    total drift:                               -0.004335     -0.008741      0.011810


--------------------------------------------------------------------------------------------------------



  FREE ENERGIE OF THE ION-ELECTRON SYSTEM (eV)
  ---------------------------------------------------
  free  energy   TOTEN  =      -779.64110303 eV

  energy  without entropy=     -779.61521087  energy(sigma->0) =     -779.62815695
 


--------------------------------------------------------------------------------------------------------


    POTLOK:  cpu time    0.0929: real time    0.0929


--------------------------------------------------------------------------------------------------------




--------------------------------------------------------------------------------------------------------


     LOOP+:  cpu time 1060.6237: real time 1061.3704
    4ORBIT:  cpu time    0.0000: real time    0.0000
 


 total charge     
 
# of ion       s       p       d       tot
------------------------------------------
    1        2.019   0.052   0.000   2.071
    2        2.007   0.032   0.000   2.039
    3        2.028   0.069   0.000   2.097
    4        2.014   0.043   0.000   2.057
    5        2.030   0.074   0.000   2.104
    6        2.011   0.037   0.000   2.048
    7        2.014   0.038   0.000   2.051
    8        2.022   0.058   0.000   2.081
    9        2.009   0.034   0.000   2.043
   10        2.022   0.054   0.000   2.076
   11        2.016   0.045   0.000   2.061
   12        2.013   0.042   0.000   2.055
   13        2.021   0.052   0.000   2.073
   14        2.024   0.066   0.000   2.089
   15        2.015   0.052   0.000   2.067
   16        2.016   0.047   0.000   2.062
   17        2.023   0.060   0.000   2.084
   18        2.024   0.057   0.000   2.081
   19        2.028   0.069   0.000   2.097
   20        2.022   0.059   0.000   2.081
   21        2.033   0.078   0.000   2.111
   22        2.025   0.060   0.000   2.085
   23        2.005   0.030   0.000   2.035
   24        2.034   0.081   0.000   2.115
   25        2.026   0.068   0.000   2.094
   26        2.042   0.095   0.000   2.137
   27        2.045   0.102   0.000   2.147
   28        2.023   0.060   0.000   2.083
   29        2.034   0.076   0.000   2.110
   30        2.011   0.043   0.000   2.053
   31        2.021   0.054   0.000   2.075
   32        2.052   0.113   0.000   2.165
   33        2.018   0.047   0.000   2.065
   34        2.014   0.043   0.000   2.057
   35        2.014   0.047   0.000   2.060
   36        2.013   0.039   0.000   2.052
   37        2.014   0.043   0.000   2.057
   38        2.027   0.065   0.000   2.091
   39        2.057   0.136   0.000   2.193
   40        2.072   0.243   0.000   2.315
   41        2.029   0.067   0.000   2.096
   42        2.012   0.041   0.000   2.054
   43        2.019   0.054   0.000   2.073
   44        2.008   0.035   0.000   2.043
   45        2.012   0.039   0.000   2.051
   46        2.033   0.075   0.000   2.108
   47        2.026   0.063   0.000   2.089
   48        2.038   0.087   0.000   2.125
   49        2.017   0.049   0.000   2.065
   50        2.020   0.053   0.000   2.073
   51        2.016   0.046   0.000   2.062
   52        2.017   0.050   0.000   2.067
   53        2.017   0.044   0.000   2.062
   54        2.021   0.055   0.000   2.076
   55        2.016   0.046   0.000   2.062
   56        2.027   0.064   0.000   2.091
   57        2.008   0.036   0.000   2.045
   58        2.018   0.050   0.000   2.068
   59        2.021   0.054   0.000   2.075
   60        2.024   0.064   0.000   2.089
   61        2.023   0.057   0.000   2.080
   62        2.020   0.047   0.000   2.067
   63        2.035   0.081   0.000   2.116
   64        2.033   0.076   0.000   2.109
   65        2.019   0.049   0.000   2.068
   66        2.028   0.066   0.000   2.094
   67        2.017   0.047   0.000   2.063
   68        2.019   0.053   0.000   2.072
   69        2.008   0.035   0.000   2.043
   70        2.022   0.053   0.000   2.075
   71        2.022   0.055   0.000   2.077
   72        2.018   0.049   0.000   2.066
   73        2.019   0.054   0.000   2.073
   74        2.017   0.046   0.000   2.063
   75        2.023   0.054   0.000   2.077
   76        2.019   0.044   0.000   2.062
   77        2.033   0.075   0.000   2.108
   78        2.023   0.062   0.000   2.086
   79        2.018   0.049   0.000   2.066
   80        2.026   0.067   0.000   2.094
   81        2.022   0.059   0.000   2.081
   82        2.015   0.047   0.000   2.062
   83        2.026   0.067   0.000   2.093
   84        2.017   0.047   0.000   2.065
   85        2.015   0.045   0.000   2.060
   86        2.010   0.036   0.000   2.046
   87        2.015   0.043   0.000   2.058
   88        2.027   0.065   0.000   2.092
   89        2.042   0.100   0.000   2.142
   90        2.018   0.048   0.000   2.066
   91        2.030   0.068   0.000   2.098
   92        2.007   0.036   0.000   2.043
   93        2.028   0.065   0.000   2.093
   94        2.009   0.034   0.000   2.043
   95        2.021   0.059   0.000   2.080
   96        2.024   0.058   0.000   2.082
   97        0.983   1.383   0.000   2.366
   98        1.095   1.366   0.000   2.461
   99        1.079   1.306   0.000   2.385
  100        0.986   1.445   0.000   2.431
  101        1.176   1.789   0.000   2.965
  102        1.102   1.226   0.000   2.328
  103        1.153   1.534   0.000   2.688
  104        1.101   1.274   0.000   2.375
  105        1.134   1.174   0.000   2.308
  106        0.975   1.351   0.000   2.326
  107        1.057   1.380   0.000   2.437
  108        1.096   1.251   0.000   2.347
  109        0.992   1.348   0.000   2.339
  110        1.009   1.319   0.000   2.328
  111        0.976   1.449   0.000   2.425
  112        1.110   1.278   0.000   2.388
  113        1.338   2.413   0.000   3.751
  114        1.327   2.455   0.000   3.782
  115        1.353   2.349   0.000   3.702
  116        1.360   2.374   0.000   3.734
  117        1.347   2.460   0.000   3.808
  118        1.310   2.511   0.000   3.821
  119        1.350   2.363   0.000   3.713
  120        1.342   2.411   0.000   3.752
  121        1.351   2.418   0.000   3.769
  122        1.343   2.435   0.000   3.778
  123        1.311   2.433   0.000   3.744
  124        1.345   2.352   0.000   3.697
  125        1.332   2.408   0.000   3.740
  126        1.349   2.526   0.000   3.875
  127        1.341   2.408   0.000   3.749
  128        1.350   2.485   0.000   3.834
  129        1.430   2.928   0.000   4.359
  130        1.329   2.399   0.000   3.728
  131        1.375   2.325   0.000   3.700
  132        1.335   2.492   0.000   3.827
  133        1.364   2.379   0.000   3.743
  134        1.340   2.445   0.000   3.785
  135        1.341   2.404   0.000   3.746
  136        1.364   2.431   0.000   3.795
  137        1.372   2.336   0.000   3.708
  138        1.357   2.583   0.000   3.940
  139        1.362   2.337   0.000   3.699
  140        1.345   2.419   0.000   3.764
  141        1.343   2.379   0.000   3.723
  142        1.347   2.276   0.000   3.622
  143        1.353   2.407   0.000   3.760
  144        1.310   2.453   0.000   3.763
  145        1.313   2.470   0.000   3.783
  146        1.375   2.254   0.000   3.628
  147        1.348   2.337   0.000   3.685
  148        1.347   2.359   0.000   3.706
  149        1.353   2.356   0.000   3.709
  150        1.345   2.439   0.000   3.784
  151        1.339   2.419   0.000   3.758
  152        1.348   2.409   0.000   3.757
  153        1.335   2.474   0.000   3.809
  154        1.344   2.307   0.000   3.651
  155        1.334   2.459   0.000   3.793
  156        1.338   2.402   0.000   3.740
  157        1.343   2.485   0.000   3.828
  158        1.335   2.474   0.000   3.809
  159        1.340   2.369   0.000   3.709
  160        1.342   2.368   0.000   3.710
  161        1.353   2.407   0.000   3.760
  162        1.369   2.271   0.000   3.640
  163        1.347   2.376   0.000   3.724
  164        1.346   2.393   0.000   3.739
  165        1.349   2.343   0.000   3.692
  166        1.364   2.323   0.000   3.687
  167        1.357   2.342   0.000   3.699
  168        1.353   2.422   0.000   3.775
  169        1.329   2.455   0.000   3.784
  170        1.347   2.409   0.000   3.757
  171        1.327   2.429   0.000   3.755
  172        1.344   2.498   0.000   3.842
  173        1.357   2.295   0.000   3.652
  174        1.357   2.471   0.000   3.828
  175        1.335   2.512   0.000   3.847
  176        1.359   2.345   0.000   3.705
  177        1.312   2.477   0.000   3.789
  178        1.311   2.466   0.000   3.777
  179        1.362   2.247   0.000   3.609
  180        1.307   2.489   0.000   3.796
  181        1.314   2.473   0.000   3.787
  182        1.314   2.460   0.000   3.775
  183        1.312   2.501   0.000   3.813
  184        1.308   2.445   0.000   3.753
  185        1.319   2.484   0.000   3.803
  186        1.339   2.388   0.000   3.727
  187        1.316   2.497   0.000   3.813
  188        1.327   2.454   0.000   3.782
  189        1.313   2.456   0.000   3.769
  190        1.386   2.355   0.000   3.741
  191        1.314   2.515   0.000   3.828
  192        1.366   2.337   0.000   3.703
  193        1.593   3.615   0.000   5.208
  194        1.599   3.660   0.000   5.258
  195        1.596   3.574   0.000   5.170
  196        1.591   3.612   0.000   5.203
  197        1.601   3.674   0.000   5.276
  198        1.590   3.593   0.000   5.183
  199        1.593   3.670   0.000   5.263
  200        1.590   3.612   0.000   5.202
  201        1.593   3.598   0.000   5.191
  202        1.598   3.587   0.000   5.185
  203        1.596   3.654   0.000   5.250
  204        1.594   3.598   0.000   5.191
  205        1.593   3.602   0.000   5.195
  206        1.595   3.534   0.000   5.129
  207        1.602   3.563   0.000   5.165
  208        1.597   3.628   0.000   5.225
--------------------------------------------------
tot        344.075 278.792   0.000 622.867
 

 total amount of memory used by VASP MPI-rank0   111673. kBytes
=======================================================================

   base      :      30000. kBytes
   nonl-proj :      48226. kBytes
   fftplans  :       6264. kBytes
   grid      :      10964. kBytes
   one-center:         79. kBytes
   wavefun   :      16140. kBytes
 
  
  
 General timing and accounting informations for this job:
 ========================================================
  
                  Total CPU time used (sec):     1070.030
                            User time (sec):     1066.103
                          System time (sec):        3.927
                         Elapsed time (sec):     1071.246
  
                   Maximum memory used (kb):      329376.
                   Average memory used (kb):           0.
  
                          Minor page faults:       475419
                          Major page faults:            0
                 Voluntary context switches:         9601
