LPSC                                    
           1
    16.026082    0.000000    0.000000
     0.000000   16.100000    0.000000
     0.000000    0.000000   16.425367
   Li   P    S    Cl
  96  16  80  16
Direct configuration=     1
   0.72644705  0.83420497  0.17839358
   0.60699802  0.67897516  0.98432504
   0.65803357  0.65147826  0.18125927
   0.78954419  0.89636646  0.02264047
   0.58641719  0.78567081  0.26853829
   0.90789502  0.74383230  0.88416898
   0.23310189  0.01938733  0.03915018
   0.19673180  0.85510559  0.27287792
   0.07926766  0.03211615  0.35350687
   0.23268257  0.69957143  0.07810115
   0.10778430  0.67529814  0.89571819
   0.30827622  0.83521739  0.44000722
   0.32542639  0.49724596  0.63184585
   0.56243067  0.78939130  0.53762452
   0.68844026  0.87041615  0.76974840
   0.37507046  0.62033851  0.43551843
   0.71462882  0.53732174  0.72873258
   0.16024253  0.75209938  0.61415979
   0.01206346  0.92986335  0.86202640
   0.93045200  0.49309689  0.97858392
   0.16721866  0.44465093  0.68358899
   0.51476462  0.89431056  0.89646703
   0.99520894  0.63204348  0.73835793
   0.85897476  0.53183602  0.85949373
   0.40105061  0.50215093  0.85819087
   0.06321320  0.50734472  0.84343930
   0.27691672  0.61207764  0.79756513
   0.42886901  0.70914907  0.91087767
   0.04929895  0.30100559  0.69760998
   0.51408760  0.62104286  0.73011458
   0.25130596  0.24594907  0.02651575
   0.38630590  0.15492360  0.14428049
   0.46847009  0.07147143  0.02846974
   0.44284373  0.32188447  0.06814033
   0.62480025  0.37583727  0.19341790
   0.12029141  0.19185404  0.12698651
   0.82397557  0.11306460  0.49500934
   0.79008082  0.29114907  0.64258534
   0.59213599  0.03185404  0.89865876
   0.57582009  0.27880186  0.63804967
   0.85335268  0.17902484  0.79498376
   0.74009979  0.31075031  0.89351428
   0.47086431  0.23852112  0.37321662
   0.23222707  0.99521739  0.71345742
   0.33338217  0.07146894  0.32362991
   0.97401224  0.19000994  0.62707883
   0.40205772  0.07362174  0.51511787
   0.94324988  0.32729876  0.38704767
   0.37350239  0.42767888  0.38362248
   0.00676959  0.23347143  0.25905662
   0.19381718  0.24756894  0.30786466
   0.95535515  0.39048323  0.18892546
   0.10500633  0.46878820  0.26511371
   0.30127763  0.44954410  0.22833219
   0.78576286  0.61107826  0.28897741
   0.10383074  0.56694534  0.10598972
   0.78789064  0.51489193  0.11136494
   0.11211911  0.71295031  0.27860321
   0.94660691  0.67560248  0.04193197
   0.11291718  0.46594596  0.43506912
   0.42219053  0.00862615  0.77457021
   0.34643152  0.92569565  0.92031429
   0.36370274  0.89545342  0.64097198
   0.08176733  0.81717391  0.73495466
   0.21048314  0.84954037  0.86282395
   0.30795362  0.77072050  0.75247634
   0.04981579  0.81209938  0.46863184
   0.87139202  0.94053416  0.49247362
   0.92658954  0.76736025  0.27638591
   0.90923658  0.72850932  0.48867523
   0.77879921  0.80163975  0.39214832
   0.75072622  0.13180683  0.67866977
   0.01025472  0.33697329  0.87247974
   0.36998563  0.15209130  0.87112209
   0.12111569  0.15262919  0.82940004
   0.23279489  0.33275217  0.79973251
   0.11164550  0.85321118  0.06215508
   0.21452093  0.46147516  0.93490149
   0.58273944  0.41726025  0.44110126
   0.50295075  0.56682484  0.10727979
   0.71619501  0.25127640  0.28976461
   0.52930966  0.60401304  0.30295092
   0.41201087  0.70578261  0.24949336
   0.76064755  0.45111553  0.37383822
   0.80143731  0.02617969  0.28661034
   0.51996676  0.86201242  0.12197718
   0.65402760  0.70667702  0.39999472
   0.66817953  0.93193168  0.33194509
   0.48351681  0.02935609  0.24746966
   0.50512284  0.93690683  0.37222304
   0.37443587  0.23261491  0.72263226
   0.84157812  0.51017329  0.56059021
   0.54562681  0.10904099  0.73393794
   0.22092986  0.20383106  0.62472881
   0.58043444  0.10115776  0.46468368
   0.64879863  0.17048758  0.83676669
   0.69431193  0.92503727  0.58090513
   0.63032874  0.68754037  0.60443581
   0.35479601  0.28998944  0.22002979
   0.20210804  0.97656522  0.52422329
   0.95365792  0.52687329  0.41278164
   0.88550651  0.43100683  0.72984062
   0.52385792  0.34000124  0.57982449
   0.12664480  0.60659876  0.52570150
   0.59138410  0.10971553  0.24983551
   0.78359140  0.00928124  0.85397179
   0.92240262  0.85835404  0.12692441
   0.34687206  0.53704720  0.05361859
   0.84061719  0.25600186  0.18820828
   0.68597552  0.48151056  0.96213984
   0.27963479  0.66190683  0.26682083
   0.49649939  0.41387329  0.85840396
   0.69708242  0.05245416  0.56263705
   0.65775278  0.86998758  0.47208443
   0.59542501  0.88849068  0.65722124
   0.78945060  0.86258385  0.62460705
   0.67808838  0.67127329  0.71059599
   0.72568579  0.73859627  0.27328765
   0.48742294  0.95695031  0.64888048
   0.50121858  0.69113043  0.43434159
   0.43961462  0.40024099  0.19379719
   0.33312571  0.28965217  0.34295672
   0.11592665  0.13229379  0.26239962
   0.22748355  0.33907950  0.17816832
   0.24560838  0.97477019  0.39838318
   0.28028622  0.04525329  0.57159940
   0.25222260  0.84508696  0.57881203
   0.09189957  0.94187578  0.51111552
   0.90087521  0.45757764  0.43089753
   0.65080785  0.51854224  0.31963791
   0.07316635  0.60021615  0.39949001
   0.67738328  0.30294907  0.43066618
   0.86829083  0.39876770  0.85855616
   0.03969579  0.43099938  0.75410187
   0.86007297  0.56259876  0.71940554
   0.69529159  0.47674845  0.54480366
   0.55308715  0.58701925  0.59455901
   0.47598845  0.42429255  0.53309737
   0.42383909  0.24725404  0.59575168
   0.59289039  0.24487888  0.47833939
   0.02563771  0.68414286  0.57683947
   0.34461324  0.63636025  0.58157300
   0.06583892  0.50606087  0.56925547
   0.17369248  0.70965839  0.76918220
   0.46752288  0.08979814  0.38230013
   0.69088627  0.09229317  0.14423422
   0.69199072  0.08625093  0.36329295
   0.57578640  0.25047329  0.26919703
   0.74945330  0.09645404  0.94156800
   0.67617899  0.00782863  0.77787607
   0.80235456  0.88462733  0.88003513
   0.87273359  0.04004516  0.77180011
   0.84317552  0.94192547  0.16383683
   0.92424337  0.57479938  0.21965537
   0.99337443  0.90042857  0.03296066
   0.84317552  0.75896894  0.07654380
   0.35588736  0.57164410  0.28802949
   0.44249181  0.56920186  0.98128705
   0.23308691  0.60323789  0.97447442
   0.32566537  0.40651242  0.00991923
   0.85208599  0.19490248  0.29509478
   0.72888682  0.20821988  0.11420141
   0.94975803  0.25711304  0.11924422
   0.80319070  0.37408137  0.22231467
   0.62926796  0.51151366  0.10007387
   0.59459511  0.38468944  0.94704124
   0.79469205  0.41120559  0.00559091
   0.72319610  0.58618882  0.91878617
   0.17395955  0.59123727  0.21638542
   0.28053582  0.76832298  0.19229829
   0.45425950  0.78603727  0.37451766
   0.24366842  0.71406832  0.36431271
   0.50078803  0.27965404  0.77979993
   0.70829539  0.42650373  0.63970565
   0.51272544  0.10294969  0.86520441
   0.56332608  0.46012733  0.76278357
   0.53548522  0.69580745  0.16775211
   0.22864977  0.88843478  0.99430351
   0.42852146  0.73424224  0.64804031
   0.97617746  0.60655590  0.90264041
   0.25047794  0.47228634  0.80015259
   0.39231423  0.18820932  0.01121704
   0.73665541  0.24578075  0.76604072
   0.25040681  0.17997764  0.76670433
   0.04816991  0.36100248  0.33830538
   0.97899162  0.51589379  0.11729966
   0.33400366  0.89946584  0.76932223
   0.92168504  0.84174534  0.39975545
   0.00403847  0.20850186  0.79112388
   0.52500355  0.44512671  0.25965508
   0.56906797  0.91887578  0.24693025
   0.46932494  0.12512981  0.62262840
   0.54730158  0.94924224  0.00401189
   0.38681819  0.04451261  0.16551046
   0.24884123  0.43659193  0.43265761
   0.54923156  0.75885093  0.88872900
   0.38613118  0.64754037  0.80307490
   0.16102875  0.16000497  0.99391995
   0.86099647  0.20826708  0.57863608
   0.08221036  0.24752857  0.58295136
   0.08493280  0.71525466  0.05676348
   0.06814142  0.84443478  0.27230929
   0.09516674  0.94036646  0.78439039
   0.95898673  0.79675776  0.76468307
   0.06285067  0.43196832  0.95642916
   0.78374115  0.65357764  0.48614743
   0.90508086  0.00914894  0.38721631
   0.25875382  0.38707391  0.62402867
