       N       E                     dE             d eps       ncg     rms          rms(c)
RMM:   1    -0.378322645518E+04   -0.37832E+04   -0.47089E+05   592   0.130E+03
RMM:   2     0.241595389966E+04    0.61992E+04   -0.74082E+04   592   0.251E+02
RMM:   3     0.834233443721E+03   -0.15817E+04   -0.23553E+04   592   0.135E+02
RMM:   4     0.122929798913E+01   -0.83300E+03   -0.83574E+03   592   0.982E+01
RMM:   5    -0.360568748694E+03   -0.36180E+03   -0.33011E+03   592   0.639E+01
RMM:   6    -0.515642806337E+03   -0.15507E+03   -0.14118E+03   592   0.472E+01
RMM:   7    -0.590507979431E+03   -0.74865E+02   -0.71138E+02   592   0.364E+01
RMM:   8    -0.634268002988E+03   -0.43760E+02   -0.41164E+02   592   0.312E+01
RMM:   9    -0.747071530018E+03   -0.11280E+03   -0.11199E+03  2146   0.273E+01
RMM:  10    -0.805134327885E+03   -0.58063E+02   -0.57421E+02  2139   0.178E+01
RMM:  11    -0.818312636332E+03   -0.13178E+02   -0.13738E+02  2070   0.111E+01
RMM:  12    -0.826650757912E+03   -0.83381E+01   -0.83589E+01  2059   0.841E+00    0.764E+01
RMM:  13    -0.782795369460E+03    0.43855E+02   -0.10646E+02  1582   0.878E+00    0.504E+01
RMM:  14    -0.779728104945E+03    0.30673E+01   -0.87872E+01  1684   0.771E+00    0.166E+01
RMM:  15    -0.779710272829E+03    0.17832E-01   -0.23023E+01  1917   0.460E+00    0.798E+00
RMM:  16    -0.779451457597E+03    0.25882E+00   -0.81980E+00  1969   0.315E+00    0.592E+00
RMM:  17    -0.779081970453E+03    0.36949E+00   -0.39538E+00  1984   0.231E+00    0.376E+00
RMM:  18    -0.779169871271E+03   -0.87901E-01   -0.27115E+00  1986   0.187E+00    0.298E+00
RMM:  19    -0.779301255357E+03   -0.13138E+00   -0.18115E+00  1942   0.152E+00    0.219E+00
RMM:  20    -0.779455318332E+03   -0.15406E+00   -0.12469E+00  1947   0.128E+00    0.266E+00
RMM:  21    -0.779483870463E+03   -0.28552E-01   -0.83907E-01  2026   0.106E+00    0.101E+00
RMM:  22    -0.779519749127E+03   -0.35879E-01   -0.51326E-01  2028   0.877E-01    0.528E-01
RMM:  23    -0.779560745451E+03   -0.40996E-01   -0.49048E-01  2047   0.735E-01    0.388E-01
RMM:  24    -0.779582756541E+03   -0.22011E-01   -0.24653E-01  2024   0.588E-01    0.249E-01
RMM:  25    -0.779600574213E+03   -0.17818E-01   -0.18547E-01  2045   0.490E-01    0.207E-01
RMM:  26    -0.779613523849E+03   -0.12950E-01   -0.13075E-01  2035   0.409E-01    0.213E-01
RMM:  27    -0.779620329129E+03   -0.68053E-02   -0.80623E-02  2025   0.339E-01    0.956E-02
RMM:  28    -0.779627372250E+03   -0.70431E-02   -0.74148E-02  2045   0.288E-01    0.792E-02
RMM:  29    -0.779630989925E+03   -0.36177E-02   -0.38093E-02  2037   0.233E-01    0.660E-02
RMM:  30    -0.779634197613E+03   -0.32077E-02   -0.33563E-02  1997   0.199E-01    0.103E-01
RMM:  31    -0.779636208235E+03   -0.20106E-02   -0.22283E-02  1949   0.167E-01    0.167E-01
RMM:  32    -0.779637504736E+03   -0.12965E-02   -0.15527E-02  1877   0.140E-01    0.191E-01
RMM:  33    -0.779638343403E+03   -0.83867E-03   -0.11202E-02  1871   0.119E-01    0.221E-01
RMM:  34    -0.779638914088E+03   -0.57069E-03   -0.86810E-03  1905   0.102E-01    0.252E-01
RMM:  35    -0.779639051805E+03   -0.13772E-03   -0.55402E-03  1962   0.876E-02    0.289E-01
RMM:  36    -0.779639441542E+03   -0.38974E-03   -0.56051E-03  1856   0.752E-02    0.300E-01
RMM:  37    -0.779639582299E+03   -0.14076E-03   -0.28930E-03  1852   0.618E-02    0.300E-01
RMM:  38    -0.779639698758E+03   -0.11646E-03   -0.24428E-03  1851   0.527E-02    0.305E-01
RMM:  39    -0.779639739303E+03   -0.40544E-04   -0.16779E-03  1849   0.452E-02    0.311E-01
RMM:  40    -0.779639845891E+03   -0.10659E-03   -0.12392E-03  1849   0.385E-02    0.305E-01
RMM:  41    -0.779639938313E+03   -0.92422E-04   -0.10174E-03  1836   0.335E-02    0.301E-01
RMM:  42    -0.779640094578E+03   -0.15627E-03   -0.64578E-04  1887   0.287E-02    0.284E-01
RMM:  43    -0.779640427751E+03   -0.33317E-03   -0.58046E-04  1940   0.277E-02    0.238E-01
RMM:  44    -0.779640568026E+03   -0.14028E-03   -0.44862E-04  1961   0.222E-02    0.217E-01
RMM:  45    -0.779640644503E+03   -0.76477E-04   -0.33218E-04  1825   0.181E-02    0.208E-01
RMM:  46    -0.779640704363E+03   -0.59860E-04   -0.20838E-04  1768   0.154E-02    0.198E-01
RMM:  47    -0.779640827279E+03   -0.12292E-03   -0.17914E-04  1886   0.150E-02    0.174E-01
RMM:  48    -0.779640966967E+03   -0.13969E-03   -0.18647E-04  1766   0.155E-02    0.135E-01
RMM:  49    -0.779641019286E+03   -0.52319E-04   -0.12526E-04  1849   0.114E-02    0.117E-01
RMM:  50    -0.779641031202E+03   -0.11916E-04   -0.74524E-05  1223   0.855E-03    0.116E-01
RMM:  51    -0.779641035699E+03   -0.44962E-05   -0.53838E-05  1207   0.779E-03    0.116E-01
RMM:  52    -0.779641039050E+03   -0.33517E-05   -0.45211E-05  1231   0.726E-03    0.116E-01
RMM:  53    -0.779641045831E+03   -0.67803E-05   -0.36231E-05  1218   0.680E-03    0.114E-01
RMM:  54    -0.779641049035E+03   -0.32039E-05   -0.27199E-05  1062   0.629E-03    0.114E-01
RMM:  55    -0.779641050547E+03   -0.15120E-05   -0.23459E-05  1141   0.605E-03    0.114E-01
RMM:  56    -0.779641054181E+03   -0.36341E-05   -0.20515E-05  1181   0.586E-03    0.113E-01
RMM:  57    -0.779641057221E+03   -0.30404E-05   -0.16724E-05  1130   0.561E-03    0.112E-01
RMM:  58    -0.779641061841E+03   -0.46198E-05   -0.12866E-05  1070   0.545E-03    0.111E-01
RMM:  59    -0.779641074315E+03   -0.12474E-04   -0.15498E-05  1279   0.560E-03    0.106E-01
RMM:  60    -0.779641086711E+03   -0.12396E-04   -0.15297E-05  1276   0.567E-03    0.102E-01
RMM:  61    -0.779641100551E+03   -0.13839E-04   -0.16166E-05  1336   0.564E-03    0.948E-02
RMM:  62    -0.779641102697E+03   -0.21461E-05   -0.10126E-05  1144   0.504E-03    0.939E-02
RMM:  63    -0.779641103032E+03   -0.33532E-06   -0.31674E-06   849   0.462E-03
   1 F= -.77964110E+03 E0= -.77962816E+03  d E =-.779641E+03
