  65  65   1   0
  0.1996187E+02  0.1025000E-08  0.1025000E-08  0.1235000E-08  0.5000000E-15
  1.000000000000000E-004
  CAR 
 LPSC                                    
      9.97753065    -47.04160549  301      2.58880092      1.00000000
    -47.042  0.0000E+00  0.0000E+00
    -46.852  0.0000E+00  0.0000E+00
    -46.661  0.0000E+00  0.0000E+00
    -46.471  0.0000E+00  0.0000E+00
    -46.281  0.0000E+00  0.0000E+00
    -46.091  0.0000E+00  0.0000E+00
    -45.901  0.0000E+00  0.0000E+00
    -45.711  0.0000E+00  0.0000E+00
    -45.521  0.0000E+00  0.0000E+00
    -45.331  0.0000E+00  0.0000E+00
    -45.141  0.0000E+00  0.0000E+00
    -44.951  0.0000E+00  0.0000E+00
    -44.761  0.0000E+00  0.0000E+00
    -44.571  0.3283E-02  0.6240E-03
    -44.381  0.1025E+02  0.1949E+01
    -44.191  0.5024E+00  0.2045E+01
    -44.001  0.1217E+02  0.4358E+01
    -43.811  0.2935E+02  0.9936E+01
    -43.620  0.1858E+02  0.1347E+02
    -43.430  0.6644E+02  0.2610E+02
    -43.240  0.4519E+02  0.3468E+02
    -43.050  0.5913E+02  0.4592E+02
    -42.860  0.5647E+02  0.5666E+02
    -42.670  0.7060E+01  0.5800E+02
    -42.480  0.6424E-03  0.5800E+02
    -42.290  0.9864E+01  0.5987E+02
    -42.100  0.6581E+00  0.6000E+02
    -41.910  0.0000E+00  0.6000E+02
    -41.720  0.0000E+00  0.6000E+02
    -41.530  0.0000E+00  0.6000E+02
    -41.340  0.0000E+00  0.6000E+02
    -41.150  0.0000E+00  0.6000E+02
    -40.960  0.0000E+00  0.6000E+02
    -40.770  0.0000E+00  0.6000E+02
    -40.579  0.0000E+00  0.6000E+02
    -40.389  0.0000E+00  0.6000E+02
    -40.199  0.0000E+00  0.6000E+02
    -40.009  0.0000E+00  0.6000E+02
    -39.819  0.0000E+00  0.6000E+02
    -39.629  0.0000E+00  0.6000E+02
    -39.439  0.0000E+00  0.6000E+02
    -39.249  0.0000E+00  0.6000E+02
    -39.059  0.0000E+00  0.6000E+02
    -38.869  0.0000E+00  0.6000E+02
    -38.679  0.0000E+00  0.6000E+02
    -38.489  0.0000E+00  0.6000E+02
    -38.299  0.0000E+00  0.6000E+02
    -38.109  0.0000E+00  0.6000E+02
    -37.919  0.0000E+00  0.6000E+02
    -37.728  0.0000E+00  0.6000E+02
    -37.538  0.0000E+00  0.6000E+02
    -37.348  0.0000E+00  0.6000E+02
    -37.158  0.0000E+00  0.6000E+02
    -36.968  0.0000E+00  0.6000E+02
    -36.778  0.0000E+00  0.6000E+02
    -36.588  0.0000E+00  0.6000E+02
    -36.398  0.0000E+00  0.6000E+02
    -36.208  0.0000E+00  0.6000E+02
    -36.018  0.0000E+00  0.6000E+02
    -35.828  0.0000E+00  0.6000E+02
    -35.638  0.0000E+00  0.6000E+02
    -35.448  0.0000E+00  0.6000E+02
    -35.258  0.0000E+00  0.6000E+02
    -35.068  0.0000E+00  0.6000E+02
    -34.878  0.0000E+00  0.6000E+02
    -34.687  0.0000E+00  0.6000E+02
    -34.497  0.0000E+00  0.6000E+02
    -34.307  0.0000E+00  0.6000E+02
    -34.117  0.0000E+00  0.6000E+02
    -33.927  0.0000E+00  0.6000E+02
    -33.737  0.0000E+00  0.6000E+02
    -33.547  0.0000E+00  0.6000E+02
    -33.357  0.0000E+00  0.6000E+02
    -33.167  0.0000E+00  0.6000E+02
    -32.977  0.0000E+00  0.6000E+02
    -32.787  0.0000E+00  0.6000E+02
    -32.597  0.0000E+00  0.6000E+02
    -32.407  0.0000E+00  0.6000E+02
    -32.217  0.0000E+00  0.6000E+02
    -32.027  0.0000E+00  0.6000E+02
    -31.837  0.0000E+00  0.6000E+02
    -31.646  0.0000E+00  0.6000E+02
    -31.456  0.0000E+00  0.6000E+02
    -31.266  0.0000E+00  0.6000E+02
    -31.076  0.0000E+00  0.6000E+02
    -30.886  0.0000E+00  0.6000E+02
    -30.696  0.0000E+00  0.6000E+02
    -30.506  0.0000E+00  0.6000E+02
    -30.316  0.0000E+00  0.6000E+02
    -30.126  0.0000E+00  0.6000E+02
    -29.936  0.0000E+00  0.6000E+02
    -29.746  0.0000E+00  0.6000E+02
    -29.556  0.0000E+00  0.6000E+02
    -29.366  0.0000E+00  0.6000E+02
    -29.176  0.0000E+00  0.6000E+02
    -28.986  0.0000E+00  0.6000E+02
    -28.795  0.0000E+00  0.6000E+02
    -28.605  0.0000E+00  0.6000E+02
    -28.415  0.0000E+00  0.6000E+02
    -28.225  0.0000E+00  0.6000E+02
    -28.035  0.0000E+00  0.6000E+02
    -27.845  0.0000E+00  0.6000E+02
    -27.655  0.0000E+00  0.6000E+02
    -27.465  0.0000E+00  0.6000E+02
    -27.275  0.0000E+00  0.6000E+02
    -27.085  0.0000E+00  0.6000E+02
    -26.895  0.0000E+00  0.6000E+02
    -26.705  0.0000E+00  0.6000E+02
    -26.515  0.0000E+00  0.6000E+02
    -26.325  0.0000E+00  0.6000E+02
    -26.135  0.0000E+00  0.6000E+02
    -25.945  0.0000E+00  0.6000E+02
    -25.754  0.0000E+00  0.6000E+02
    -25.564  0.0000E+00  0.6000E+02
    -25.374  0.0000E+00  0.6000E+02
    -25.184  0.0000E+00  0.6000E+02
    -24.994  0.0000E+00  0.6000E+02
    -24.804  0.0000E+00  0.6000E+02
    -24.614  0.0000E+00  0.6000E+02
    -24.424  0.0000E+00  0.6000E+02
    -24.234  0.0000E+00  0.6000E+02
    -24.044  0.0000E+00  0.6000E+02
    -23.854  0.0000E+00  0.6000E+02
    -23.664  0.0000E+00  0.6000E+02
    -23.474  0.0000E+00  0.6000E+02
    -23.284  0.0000E+00  0.6000E+02
    -23.094  0.0000E+00  0.6000E+02
    -22.904  0.0000E+00  0.6000E+02
    -22.713  0.0000E+00  0.6000E+02
    -22.523  0.0000E+00  0.6000E+02
    -22.333  0.0000E+00  0.6000E+02
    -22.143  0.0000E+00  0.6000E+02
    -21.953  0.0000E+00  0.6000E+02
    -21.763  0.0000E+00  0.6000E+02
    -21.573  0.0000E+00  0.6000E+02
    -21.383  0.0000E+00  0.6000E+02
    -21.193  0.0000E+00  0.6000E+02
    -21.003  0.0000E+00  0.6000E+02
    -20.813  0.0000E+00  0.6000E+02
    -20.623  0.0000E+00  0.6000E+02
    -20.433  0.0000E+00  0.6000E+02
    -20.243  0.0000E+00  0.6000E+02
    -20.053  0.0000E+00  0.6000E+02
    -19.862  0.0000E+00  0.6000E+02
    -19.672  0.0000E+00  0.6000E+02
    -19.482  0.0000E+00  0.6000E+02
    -19.292  0.0000E+00  0.6000E+02
    -19.102  0.0000E+00  0.6000E+02
    -18.912  0.0000E+00  0.6000E+02
    -18.722  0.0000E+00  0.6000E+02
    -18.532  0.0000E+00  0.6000E+02
    -18.342  0.0000E+00  0.6000E+02
    -18.152  0.0000E+00  0.6000E+02
    -17.962  0.0000E+00  0.6000E+02
    -17.772  0.0000E+00  0.6000E+02
    -17.582  0.0000E+00  0.6000E+02
    -17.392  0.0000E+00  0.6000E+02
    -17.202  0.0000E+00  0.6000E+02
    -17.012  0.0000E+00  0.6000E+02
    -16.821  0.0000E+00  0.6000E+02
    -16.631  0.0000E+00  0.6000E+02
    -16.441  0.0000E+00  0.6000E+02
    -16.251  0.0000E+00  0.6000E+02
    -16.061  0.0000E+00  0.6000E+02
    -15.871  0.0000E+00  0.6000E+02
    -15.681  0.0000E+00  0.6000E+02
    -15.491  0.0000E+00  0.6000E+02
    -15.301  0.0000E+00  0.6000E+02
    -15.111  0.0000E+00  0.6000E+02
    -14.921  0.0000E+00  0.6000E+02
    -14.731  0.0000E+00  0.6000E+02
    -14.541  0.1403E-10  0.6000E+02
    -14.351  0.5554E+00  0.6011E+02
    -14.161  0.9966E+01  0.6200E+02
    -13.971  0.9034E-03  0.6200E+02
    -13.780  0.0000E+00  0.6200E+02
    -13.590  0.2240E-03  0.6200E+02
    -13.400  0.9977E+01  0.6390E+02
    -13.210  0.2881E+02  0.6937E+02
    -13.020  0.1383E+02  0.7200E+02
    -12.830  0.9014E+00  0.7217E+02
    -12.640  0.1996E+02  0.7596E+02
    -12.450  0.1858E+00  0.7600E+02
    -12.260  0.1487E+01  0.7628E+02
    -12.070  0.1689E+02  0.7949E+02
    -11.880  0.1353E+02  0.8206E+02
    -11.690  0.1259E+02  0.8446E+02
    -11.500  0.1029E+02  0.8641E+02
    -11.310  0.1839E+02  0.8991E+02
    -11.120  0.4854E+00  0.9000E+02
    -10.929  0.4673E-14  0.9000E+02
    -10.739  0.4057E-01  0.9001E+02
    -10.549  0.1046E+02  0.9200E+02
    -10.359  0.1050E+02  0.9399E+02
    -10.169  0.2074E+02  0.9793E+02
     -9.979  0.6785E+01  0.9922E+02
     -9.789  0.1462E+02  0.1020E+03
     -9.599  0.2788E+01  0.1025E+03
     -9.409  0.7736E+01  0.1040E+03
     -9.219  0.1116E+00  0.1040E+03
     -9.029  0.1041E+02  0.1060E+03
     -8.839  0.1040E+02  0.1080E+03
     -8.649  0.2513E+01  0.1085E+03
     -8.459  0.1744E+02  0.1118E+03
     -8.269  0.2463E+02  0.1164E+03
     -8.079  0.8165E+01  0.1180E+03
     -7.888  0.1015E+02  0.1199E+03
     -7.698  0.6244E+00  0.1200E+03
     -7.508  0.1809E+02  0.1235E+03
     -7.318  0.2706E+01  0.1240E+03
     -7.128  0.0000E+00  0.1240E+03
     -6.938  0.0000E+00  0.1240E+03
     -6.748  0.4482E-06  0.1240E+03
     -6.558  0.5346E+01  0.1250E+03
     -6.368  0.5177E+01  0.1260E+03
     -6.178  0.5065E-02  0.1260E+03
     -5.988  0.1032E+02  0.1280E+03
     -5.798  0.2001E+00  0.1280E+03
     -5.608  0.5841E-15  0.1280E+03
     -5.418  0.1541E-01  0.1280E+03
     -5.228  0.1042E+02  0.1300E+03
     -5.038  0.8608E-01  0.1300E+03
     -4.847  0.0000E+00  0.1300E+03
     -4.657  0.0000E+00  0.1300E+03
     -4.467  0.0000E+00  0.1300E+03
     -4.277  0.1061E-05  0.1300E+03
     -4.087  0.6005E+01  0.1311E+03
     -3.897  0.4518E+01  0.1320E+03
     -3.707  0.2226E-01  0.1320E+03
     -3.517  0.1081E+02  0.1341E+03
     -3.327  0.1931E+02  0.1377E+03
     -3.137  0.2108E+02  0.1417E+03
     -2.947  0.5330E+01  0.1427E+03
     -2.757  0.1703E+02  0.1460E+03
     -2.567  0.1972E+02  0.1497E+03
     -2.377  0.4140E+02  0.1576E+03
     -2.187  0.3492E+02  0.1642E+03
     -1.996  0.2746E+02  0.1695E+03
     -1.806  0.4615E+02  0.1782E+03
     -1.616  0.2796E+02  0.1835E+03
     -1.426  0.3487E+02  0.1902E+03
     -1.236  0.3366E+02  0.1966E+03
     -1.046  0.3611E+02  0.2034E+03
     -0.856  0.1930E+02  0.2071E+03
     -0.666  0.3955E+02  0.2146E+03
     -0.476  0.2481E+02  0.2193E+03
     -0.286  0.3308E+02  0.2256E+03
     -0.096  0.3884E+02  0.2330E+03
      0.094  0.3904E+02  0.2404E+03
      0.284  0.3430E+02  0.2469E+03
      0.474  0.3756E+02  0.2541E+03
      0.664  0.3869E+02  0.2614E+03
      0.854  0.2931E+02  0.2670E+03
      1.045  0.3343E+02  0.2734E+03
      1.235  0.3848E+02  0.2807E+03
      1.425  0.3399E+02  0.2871E+03
      1.615  0.1560E+02  0.2901E+03
      1.805  0.1889E+02  0.2937E+03
      1.995  0.1867E+02  0.2972E+03
      2.185  0.4928E+01  0.2982E+03
      2.375  0.9616E+01  0.3000E+03
      2.565  0.3182E-03  0.3000E+03
      2.755  0.0000E+00  0.3000E+03
      2.945  0.0000E+00  0.3000E+03
      3.135  0.0000E+00  0.3000E+03
      3.325  0.3446E-09  0.3000E+03
      3.515  0.1306E+01  0.3002E+03
      3.705  0.2286E+02  0.3046E+03
      3.895  0.1777E+02  0.3080E+03
      4.086  0.1402E+02  0.3106E+03
      4.276  0.1660E+02  0.3138E+03
      4.466  0.1109E+02  0.3159E+03
      4.656  0.9402E+01  0.3177E+03
      4.846  0.2063E+02  0.3216E+03
      5.036  0.6482E+01  0.3228E+03
      5.226  0.1662E+02  0.3260E+03
      5.416  0.1945E+02  0.3297E+03
      5.606  0.2136E+02  0.3338E+03
      5.796  0.1142E+02  0.3359E+03
      5.986  0.1098E+02  0.3380E+03
      6.176  0.2664E+02  0.3431E+03
      6.366  0.1480E+02  0.3459E+03
      6.556  0.2124E+02  0.3499E+03
      6.746  0.1302E+02  0.3524E+03
      6.937  0.3191E+02  0.3585E+03
      7.127  0.2808E+02  0.3638E+03
      7.317  0.1177E+02  0.3660E+03
      7.507  0.1034E+02  0.3680E+03
      7.697  0.3283E-02  0.3680E+03
      7.887  0.0000E+00  0.3680E+03
      8.077  0.0000E+00  0.3680E+03
      8.267  0.0000E+00  0.3680E+03
      8.457  0.0000E+00  0.3680E+03
      8.647  0.0000E+00  0.3680E+03
      8.837  0.0000E+00  0.3680E+03
      9.027  0.0000E+00  0.3680E+03
      9.217  0.0000E+00  0.3680E+03
      9.407  0.0000E+00  0.3680E+03
      9.597  0.0000E+00  0.3680E+03
      9.787  0.0000E+00  0.3680E+03
      9.978  0.0000E+00  0.3680E+03
      9.97753065    -47.04160549  301      2.58880092      1.00000000
    -47.042  0.0000E+00  0.0000E+00  0.0000E+00  0.0000E+00  0.0000E+00  0.0000E+00  0.0000E+00  0.0000E+00  0.0000E+00
    -46.852  0.0000E+00  0.0000E+00  0.0000E+00  0.0000E+00  0.0000E+00  0.0000E+00  0.0000E+00  0.0000E+00  0.0000E+00
    -46.661  0.0000E+00  0.0000E+00  0.0000E+00  0.0000E+00  0.0000E+00  0.0000E+00  0.0000E+00  0.0000E+00  0.0000E+00
    -46.471  0.0000E+00  0.0000E+00  0.0000E+00  0.0000E+00  0.0000E+00  0.0000E+00  0.0000E+00  0.0000E+00  0.0000E+00
    -46.281  0.0000E+00  0.0000E+00  0.0000E+00  0.0000E+00  0.0000E+00  0.0000E+00  0.0000E+00  0.0000E+00  0.0000E+00
    -46.091  0.0000E+00  0.0000E+00  0.0000E+00  0.0000E+00  0.0000E+00  0.0000E+00  0.0000E+00  0.0000E+00  0.0000E+00
    -45.901  0.0000E+00  0.0000E+00  0.0000E+00  0.0000E+00  0.0000E+00  0.0000E+00  0.0000E+00  0.0000E+00  0.0000E+00
    -45.711  0.0000E+00  0.0000E+00  0.0000E+00  0.0000E+00  0.0000E+00  0.0000E+00  0.0000E+00  0.0000E+00  0.0000E+00
    -45.521  0.0000E+00  0.0000E+00  0.0000E+00  0.0000E+00  0.0000E+00  0.0000E+00  0.0000E+00  0.0000E+00  0.0000E+00
    -45.331  0.0000E+00  0.0000E+00  0.0000E+00  0.0000E+00  0.0000E+00  0.0000E+00  0.0000E+00  0.0000E+00  0.0000E+00
    -45.141  0.0000E+00  0.0000E+00  0.0000E+00  0.0000E+00  0.0000E+00  0.0000E+00  0.0000E+00  0.0000E+00  0.0000E+00
    -44.951  0.0000E+00  0.0000E+00  0.0000E+00  0.0000E+00  0.0000E+00  0.0000E+00  0.0000E+00  0.0000E+00  0.0000E+00
    -44.761  0.0000E+00  0.0000E+00  0.0000E+00  0.0000E+00  0.0000E+00  0.0000E+00  0.0000E+00  0.0000E+00  0.0000E+00
    -44.571  0.2248E-14  0.2015E-12  0.1397E-13  0.2947E-12  0.0000E+00  0.0000E+00  0.0000E+00  0.0000E+00  0.0000E+00
    -44.381  0.7020E-11  0.6293E-09  0.4364E-10  0.9203E-09  0.0000E+00  0.0000E+00  0.0000E+00  0.0000E+00  0.0000E+00
    -44.191  0.4442E-11  0.1962E-10  0.6454E-11  0.2421E-10  0.0000E+00  0.0000E+00  0.0000E+00  0.0000E+00  0.0000E+00
    -44.001  0.1980E-09  0.2550E-09  0.6405E-09  0.2930E-09  0.0000E+00  0.0000E+00  0.0000E+00  0.0000E+00  0.0000E+00
    -43.811  0.5406E-07  0.1122E-07  0.2676E-08  0.5844E-08  0.0000E+00  0.0000E+00  0.0000E+00  0.0000E+00  0.0000E+00
    -43.620  0.1881E-04  0.1196E-08  0.2287E-08  0.3617E-07  0.0000E+00  0.0000E+00  0.0000E+00  0.0000E+00  0.0000E+00
    -43.430  0.5204E-04  0.1631E-07  0.2840E-07  0.3085E-07  0.0000E+00  0.0000E+00  0.0000E+00  0.0000E+00  0.0000E+00
    -43.240  0.3973E-05  0.1572E-07  0.2844E-07  0.5642E-08  0.0000E+00  0.0000E+00  0.0000E+00  0.0000E+00  0.0000E+00
    -43.050  0.6062E-06  0.1106E-07  0.2880E-08  0.5798E-08  0.0000E+00  0.0000E+00  0.0000E+00  0.0000E+00  0.0000E+00
    -42.860  0.5244E+01  0.1019E-04  0.2897E-04  0.1401E-03  0.0000E+00  0.0000E+00  0.0000E+00  0.0000E+00  0.0000E+00
    -42.670  0.5164E+01  0.1003E-04  0.2852E-04  0.1380E-03  0.0000E+00  0.0000E+00  0.0000E+00  0.0000E+00  0.0000E+00
    -42.480  0.3762E-06  0.7309E-12  0.2122E-11  0.1006E-10  0.0000E+00  0.0000E+00  0.0000E+00  0.0000E+00  0.0000E+00
    -42.290  0.6953E-07  0.2658E-11  0.6921E-09  0.1417E-09  0.0000E+00  0.0000E+00  0.0000E+00  0.0000E+00  0.0000E+00
    -42.100  0.4639E-08  0.1773E-12  0.4618E-10  0.9454E-11  0.0000E+00  0.0000E+00  0.0000E+00  0.0000E+00  0.0000E+00
    -41.910  0.0000E+00  0.0000E+00  0.0000E+00  0.0000E+00  0.0000E+00  0.0000E+00  0.0000E+00  0.0000E+00  0.0000E+00
    -41.720  0.0000E+00  0.0000E+00  0.0000E+00  0.0000E+00  0.0000E+00  0.0000E+00  0.0000E+00  0.0000E+00  0.0000E+00
    -41.530  0.0000E+00  0.0000E+00  0.0000E+00  0.0000E+00  0.0000E+00  0.0000E+00  0.0000E+00  0.0000E+00  0.0000E+00
    -41.340  0.0000E+00  0.0000E+00  0.0000E+00  0.0000E+00  0.0000E+00  0.0000E+00  0.0000E+00  0.0000E+00  0.0000E+00
    -41.150  0.0000E+00  0.0000E+00  0.0000E+00  0.0000E+00  0.0000E+00  0.0000E+00  0.0000E+00  0.0000E+00  0.0000E+00
    -40.960  0.0000E+00  0.0000E+00  0.0000E+00  0.0000E+00  0.0000E+00  0.0000E+00  0.0000E+00  0.0000E+00  0.0000E+00
    -40.770  0.0000E+00  0.0000E+00  0.0000E+00  0.0000E+00  0.0000E+00  0.0000E+00  0.0000E+00  0.0000E+00  0.0000E+00
    -40.579  0.0000E+00  0.0000E+00  0.0000E+00  0.0000E+00  0.0000E+00  0.0000E+00  0.0000E+00  0.0000E+00  0.0000E+00
    -40.389  0.0000E+00  0.0000E+00  0.0000E+00  0.0000E+00  0.0000E+00  0.0000E+00  0.0000E+00  0.0000E+00  0.0000E+00
    -40.199  0.0000E+00  0.0000E+00  0.0000E+00  0.0000E+00  0.0000E+00  0.0000E+00  0.0000E+00  0.0000E+00  0.0000E+00
    -40.009  0.0000E+00  0.0000E+00  0.0000E+00  0.0000E+00  0.0000E+00  0.0000E+00  0.0000E+00  0.0000E+00  0.0000E+00
    -39.819  0.0000E+00  0.0000E+00  0.0000E+00  0.0000E+00  0.0000E+00  0.0000E+00  0.0000E+00  0.0000E+00  0.0000E+00
    -39.629  0.0000E+00  0.0000E+00  0.0000E+00  0.0000E+00  0.0000E+00  0.0000E+00  0.0000E+00  0.0000E+00  0.0000E+00
    -39.439  0.0000E+00  0.0000E+00  0.0000E+00  0.0000E+00  0.0000E+00  0.0000E+00  0.0000E+00  0.0000E+00  0.0000E+00
    -39.249  0.0000E+00  0.0000E+00  0.0000E+00  0.0000E+00  0.0000E+00  0.0000E+00  0.0000E+00  0.0000E+00  0.0000E+00
    -39.059  0.0000E+00  0.0000E+00  0.0000E+00  0.0000E+00  0.0000E+00  0.0000E+00  0.0000E+00  0.0000E+00  0.0000E+00
    -38.869  0.0000E+00  0.0000E+00  0.0000E+00  0.0000E+00  0.0000E+00  0.0000E+00  0.0000E+00  0.0000E+00  0.0000E+00
    -38.679  0.0000E+00  0.0000E+00  0.0000E+00  0.0000E+00  0.0000E+00  0.0000E+00  0.0000E+00  0.0000E+00  0.0000E+00
    -38.489  0.0000E+00  0.0000E+00  0.0000E+00  0.0000E+00  0.0000E+00  0.0000E+00  0.0000E+00  0.0000E+00  0.0000E+00
    -38.299  0.0000E+00  0.0000E+00  0.0000E+00  0.0000E+00  0.0000E+00  0.0000E+00  0.0000E+00  0.0000E+00  0.0000E+00
    -38.109  0.0000E+00  0.0000E+00  0.0000E+00  0.0000E+00  0.0000E+00  0.0000E+00  0.0000E+00  0.0000E+00  0.0000E+00
    -37.919  0.0000E+00  0.0000E+00  0.0000E+00  0.0000E+00  0.0000E+00  0.0000E+00  0.0000E+00  0.0000E+00  0.0000E+00
    -37.728  0.0000E+00  0.0000E+00  0.0000E+00  0.0000E+00  0.0000E+00  0.0000E+00  0.0000E+00  0.0000E+00  0.0000E+00
    -37.538  0.0000E+00  0.0000E+00  0.0000E+00  0.0000E+00  0.0000E+00  0.0000E+00  0.0000E+00  0.0000E+00  0.0000E+00
    -37.348  0.0000E+00  0.0000E+00  0.0000E+00  0.0000E+00  0.0000E+00  0.0000E+00  0.0000E+00  0.0000E+00  0.0000E+00
    -37.158  0.0000E+00  0.0000E+00  0.0000E+00  0.0000E+00  0.0000E+00  0.0000E+00  0.0000E+00  0.0000E+00  0.0000E+00
    -36.968  0.0000E+00  0.0000E+00  0.0000E+00  0.0000E+00  0.0000E+00  0.0000E+00  0.0000E+00  0.0000E+00  0.0000E+00
    -36.778  0.0000E+00  0.0000E+00  0.0000E+00  0.0000E+00  0.0000E+00  0.0000E+00  0.0000E+00  0.0000E+00  0.0000E+00
    -36.588  0.0000E+00  0.0000E+00  0.0000E+00  0.0000E+00  0.0000E+00  0.0000E+00  0.0000E+00  0.0000E+00  0.0000E+00
    -36.398  0.0000E+00  0.0000E+00  0.0000E+00  0.0000E+00  0.0000E+00  0.0000E+00  0.0000E+00  0.0000E+00  0.0000E+00
    -36.208  0.0000E+00  0.0000E+00  0.0000E+00  0.0000E+00  0.0000E+00  0.0000E+00  0.0000E+00  0.0000E+00  0.0000E+00
    -36.018  0.0000E+00  0.0000E+00  0.0000E+00  0.0000E+00  0.0000E+00  0.0000E+00  0.0000E+00  0.0000E+00  0.0000E+00
    -35.828  0.0000E+00  0.0000E+00  0.0000E+00  0.0000E+00  0.0000E+00  0.0000E+00  0.0000E+00  0.0000E+00  0.0000E+00
    -35.638  0.0000E+00  0.0000E+00  0.0000E+00  0.0000E+00  0.0000E+00  0.0000E+00  0.0000E+00  0.0000E+00  0.0000E+00
    -35.448  0.0000E+00  0.0000E+00  0.0000E+00  0.0000E+00  0.0000E+00  0.0000E+00  0.0000E+00  0.0000E+00  0.0000E+00
    -35.258  0.0000E+00  0.0000E+00  0.0000E+00  0.0000E+00  0.0000E+00  0.0000E+00  0.0000E+00  0.0000E+00  0.0000E+00
    -35.068  0.0000E+00  0.0000E+00  0.0000E+00  0.0000E+00  0.0000E+00  0.0000E+00  0.0000E+00  0.0000E+00  0.0000E+00
    -34.878  0.0000E+00  0.0000E+00  0.0000E+00  0.0000E+00  0.0000E+00  0.0000E+00  0.0000E+00  0.0000E+00  0.0000E+00
    -34.687  0.0000E+00  0.0000E+00  0.0000E+00  0.0000E+00  0.0000E+00  0.0000E+00  0.0000E+00  0.0000E+00  0.0000E+00
    -34.497  0.0000E+00  0.0000E+00  0.0000E+00  0.0000E+00  0.0000E+00  0.0000E+00  0.0000E+00  0.0000E+00  0.0000E+00
    -34.307  0.0000E+00  0.0000E+00  0.0000E+00  0.0000E+00  0.0000E+00  0.0000E+00  0.0000E+00  0.0000E+00  0.0000E+00
    -34.117  0.0000E+00  0.0000E+00  0.0000E+00  0.0000E+00  0.0000E+00  0.0000E+00  0.0000E+00  0.0000E+00  0.0000E+00
    -33.927  0.0000E+00  0.0000E+00  0.0000E+00  0.0000E+00  0.0000E+00  0.0000E+00  0.0000E+00  0.0000E+00  0.0000E+00
    -33.737  0.0000E+00  0.0000E+00  0.0000E+00  0.0000E+00  0.0000E+00  0.0000E+00  0.0000E+00  0.0000E+00  0.0000E+00
    -33.547  0.0000E+00  0.0000E+00  0.0000E+00  0.0000E+00  0.0000E+00  0.0000E+00  0.0000E+00  0.0000E+00  0.0000E+00
    -33.357  0.0000E+00  0.0000E+00  0.0000E+00  0.0000E+00  0.0000E+00  0.0000E+00  0.0000E+00  0.0000E+00  0.0000E+00
    -33.167  0.0000E+00  0.0000E+00  0.0000E+00  0.0000E+00  0.0000E+00  0.0000E+00  0.0000E+00  0.0000E+00  0.0000E+00
    -32.977  0.0000E+00  0.0000E+00  0.0000E+00  0.0000E+00  0.0000E+00  0.0000E+00  0.0000E+00  0.0000E+00  0.0000E+00
    -32.787  0.0000E+00  0.0000E+00  0.0000E+00  0.0000E+00  0.0000E+00  0.0000E+00  0.0000E+00  0.0000E+00  0.0000E+00
    -32.597  0.0000E+00  0.0000E+00  0.0000E+00  0.0000E+00  0.0000E+00  0.0000E+00  0.0000E+00  0.0000E+00  0.0000E+00
    -32.407  0.0000E+00  0.0000E+00  0.0000E+00  0.0000E+00  0.0000E+00  0.0000E+00  0.0000E+00  0.0000E+00  0.0000E+00
    -32.217  0.0000E+00  0.0000E+00  0.0000E+00  0.0000E+00  0.0000E+00  0.0000E+00  0.0000E+00  0.0000E+00  0.0000E+00
    -32.027  0.0000E+00  0.0000E+00  0.0000E+00  0.0000E+00  0.0000E+00  0.0000E+00  0.0000E+00  0.0000E+00  0.0000E+00
    -31.837  0.0000E+00  0.0000E+00  0.0000E+00  0.0000E+00  0.0000E+00  0.0000E+00  0.0000E+00  0.0000E+00  0.0000E+00
    -31.646  0.0000E+00  0.0000E+00  0.0000E+00  0.0000E+00  0.0000E+00  0.0000E+00  0.0000E+00  0.0000E+00  0.0000E+00
    -31.456  0.0000E+00  0.0000E+00  0.0000E+00  0.0000E+00  0.0000E+00  0.0000E+00  0.0000E+00  0.0000E+00  0.0000E+00
    -31.266  0.0000E+00  0.0000E+00  0.0000E+00  0.0000E+00  0.0000E+00  0.0000E+00  0.0000E+00  0.0000E+00  0.0000E+00
    -31.076  0.0000E+00  0.0000E+00  0.0000E+00  0.0000E+00  0.0000E+00  0.0000E+00  0.0000E+00  0.0000E+00  0.0000E+00
    -30.886  0.0000E+00  0.0000E+00  0.0000E+00  0.0000E+00  0.0000E+00  0.0000E+00  0.0000E+00  0.0000E+00  0.0000E+00
    -30.696  0.0000E+00  0.0000E+00  0.0000E+00  0.0000E+00  0.0000E+00  0.0000E+00  0.0000E+00  0.0000E+00  0.0000E+00
    -30.506  0.0000E+00  0.0000E+00  0.0000E+00  0.0000E+00  0.0000E+00  0.0000E+00  0.0000E+00  0.0000E+00  0.0000E+00
    -30.316  0.0000E+00  0.0000E+00  0.0000E+00  0.0000E+00  0.0000E+00  0.0000E+00  0.0000E+00  0.0000E+00  0.0000E+00
    -30.126  0.0000E+00  0.0000E+00  0.0000E+00  0.0000E+00  0.0000E+00  0.0000E+00  0.0000E+00  0.0000E+00  0.0000E+00
    -29.936  0.0000E+00  0.0000E+00  0.0000E+00  0.0000E+00  0.0000E+00  0.0000E+00  0.0000E+00  0.0000E+00  0.0000E+00
    -29.746  0.0000E+00  0.0000E+00  0.0000E+00  0.0000E+00  0.0000E+00  0.0000E+00  0.0000E+00  0.0000E+00  0.0000E+00
    -29.556  0.0000E+00  0.0000E+00  0.0000E+00  0.0000E+00  0.0000E+00  0.0000E+00  0.0000E+00  0.0000E+00  0.0000E+00
    -29.366  0.0000E+00  0.0000E+00  0.0000E+00  0.0000E+00  0.0000E+00  0.0000E+00  0.0000E+00  0.0000E+00  0.0000E+00
    -29.176  0.0000E+00  0.0000E+00  0.0000E+00  0.0000E+00  0.0000E+00  0.0000E+00  0.0000E+00  0.0000E+00  0.0000E+00
    -28.986  0.0000E+00  0.0000E+00  0.0000E+00  0.0000E+00  0.0000E+00  0.0000E+00  0.0000E+00  0.0000E+00  0.0000E+00
    -28.795  0.0000E+00  0.0000E+00  0.0000E+00  0.0000E+00  0.0000E+00  0.0000E+00  0.0000E+00  0.0000E+00  0.0000E+00
    -28.605  0.0000E+00  0.0000E+00  0.0000E+00  0.0000E+00  0.0000E+00  0.0000E+00  0.0000E+00  0.0000E+00  0.0000E+00
    -28.415  0.0000E+00  0.0000E+00  0.0000E+00  0.0000E+00  0.0000E+00  0.0000E+00  0.0000E+00  0.0000E+00  0.0000E+00
    -28.225  0.0000E+00  0.0000E+00  0.0000E+00  0.0000E+00  0.0000E+00  0.0000E+00  0.0000E+00  0.0000E+00  0.0000E+00
    -28.035  0.0000E+00  0.0000E+00  0.0000E+00  0.0000E+00  0.0000E+00  0.0000E+00  0.0000E+00  0.0000E+00  0.0000E+00
    -27.845  0.0000E+00  0.0000E+00  0.0000E+00  0.0000E+00  0.0000E+00  0.0000E+00  0.0000E+00  0.0000E+00  0.0000E+00
    -27.655  0.0000E+00  0.0000E+00  0.0000E+00  0.0000E+00  0.0000E+00  0.0000E+00  0.0000E+00  0.0000E+00  0.0000E+00
    -27.465  0.0000E+00  0.0000E+00  0.0000E+00  0.0000E+00  0.0000E+00  0.0000E+00  0.0000E+00  0.0000E+00  0.0000E+00
    -27.275  0.0000E+00  0.0000E+00  0.0000E+00  0.0000E+00  0.0000E+00  0.0000E+00  0.0000E+00  0.0000E+00  0.0000E+00
    -27.085  0.0000E+00  0.0000E+00  0.0000E+00  0.0000E+00  0.0000E+00  0.0000E+00  0.0000E+00  0.0000E+00  0.0000E+00
    -26.895  0.0000E+00  0.0000E+00  0.0000E+00  0.0000E+00  0.0000E+00  0.0000E+00  0.0000E+00  0.0000E+00  0.0000E+00
    -26.705  0.0000E+00  0.0000E+00  0.0000E+00  0.0000E+00  0.0000E+00  0.0000E+00  0.0000E+00  0.0000E+00  0.0000E+00
    -26.515  0.0000E+00  0.0000E+00  0.0000E+00  0.0000E+00  0.0000E+00  0.0000E+00  0.0000E+00  0.0000E+00  0.0000E+00
    -26.325  0.0000E+00  0.0000E+00  0.0000E+00  0.0000E+00  0.0000E+00  0.0000E+00  0.0000E+00  0.0000E+00  0.0000E+00
    -26.135  0.0000E+00  0.0000E+00  0.0000E+00  0.0000E+00  0.0000E+00  0.0000E+00  0.0000E+00  0.0000E+00  0.0000E+00
    -25.945  0.0000E+00  0.0000E+00  0.0000E+00  0.0000E+00  0.0000E+00  0.0000E+00  0.0000E+00  0.0000E+00  0.0000E+00
    -25.754  0.0000E+00  0.0000E+00  0.0000E+00  0.0000E+00  0.0000E+00  0.0000E+00  0.0000E+00  0.0000E+00  0.0000E+00
    -25.564  0.0000E+00  0.0000E+00  0.0000E+00  0.0000E+00  0.0000E+00  0.0000E+00  0.0000E+00  0.0000E+00  0.0000E+00
    -25.374  0.0000E+00  0.0000E+00  0.0000E+00  0.0000E+00  0.0000E+00  0.0000E+00  0.0000E+00  0.0000E+00  0.0000E+00
    -25.184  0.0000E+00  0.0000E+00  0.0000E+00  0.0000E+00  0.0000E+00  0.0000E+00  0.0000E+00  0.0000E+00  0.0000E+00
    -24.994  0.0000E+00  0.0000E+00  0.0000E+00  0.0000E+00  0.0000E+00  0.0000E+00  0.0000E+00  0.0000E+00  0.0000E+00
    -24.804  0.0000E+00  0.0000E+00  0.0000E+00  0.0000E+00  0.0000E+00  0.0000E+00  0.0000E+00  0.0000E+00  0.0000E+00
    -24.614  0.0000E+00  0.0000E+00  0.0000E+00  0.0000E+00  0.0000E+00  0.0000E+00  0.0000E+00  0.0000E+00  0.0000E+00
    -24.424  0.0000E+00  0.0000E+00  0.0000E+00  0.0000E+00  0.0000E+00  0.0000E+00  0.0000E+00  0.0000E+00  0.0000E+00
    -24.234  0.0000E+00  0.0000E+00  0.0000E+00  0.0000E+00  0.0000E+00  0.0000E+00  0.0000E+00  0.0000E+00  0.0000E+00
    -24.044  0.0000E+00  0.0000E+00  0.0000E+00  0.0000E+00  0.0000E+00  0.0000E+00  0.0000E+00  0.0000E+00  0.0000E+00
    -23.854  0.0000E+00  0.0000E+00  0.0000E+00  0.0000E+00  0.0000E+00  0.0000E+00  0.0000E+00  0.0000E+00  0.0000E+00
    -23.664  0.0000E+00  0.0000E+00  0.0000E+00  0.0000E+00  0.0000E+00  0.0000E+00  0.0000E+00  0.0000E+00  0.0000E+00
    -23.474  0.0000E+00  0.0000E+00  0.0000E+00  0.0000E+00  0.0000E+00  0.0000E+00  0.0000E+00  0.0000E+00  0.0000E+00
    -23.284  0.0000E+00  0.0000E+00  0.0000E+00  0.0000E+00  0.0000E+00  0.0000E+00  0.0000E+00  0.0000E+00  0.0000E+00
    -23.094  0.0000E+00  0.0000E+00  0.0000E+00  0.0000E+00  0.0000E+00  0.0000E+00  0.0000E+00  0.0000E+00  0.0000E+00
    -22.904  0.0000E+00  0.0000E+00  0.0000E+00  0.0000E+00  0.0000E+00  0.0000E+00  0.0000E+00  0.0000E+00  0.0000E+00
    -22.713  0.0000E+00  0.0000E+00  0.0000E+00  0.0000E+00  0.0000E+00  0.0000E+00  0.0000E+00  0.0000E+00  0.0000E+00
    -22.523  0.0000E+00  0.0000E+00  0.0000E+00  0.0000E+00  0.0000E+00  0.0000E+00  0.0000E+00  0.0000E+00  0.0000E+00
    -22.333  0.0000E+00  0.0000E+00  0.0000E+00  0.0000E+00  0.0000E+00  0.0000E+00  0.0000E+00  0.0000E+00  0.0000E+00
    -22.143  0.0000E+00  0.0000E+00  0.0000E+00  0.0000E+00  0.0000E+00  0.0000E+00  0.0000E+00  0.0000E+00  0.0000E+00
    -21.953  0.0000E+00  0.0000E+00  0.0000E+00  0.0000E+00  0.0000E+00  0.0000E+00  0.0000E+00  0.0000E+00  0.0000E+00
    -21.763  0.0000E+00  0.0000E+00  0.0000E+00  0.0000E+00  0.0000E+00  0.0000E+00  0.0000E+00  0.0000E+00  0.0000E+00
    -21.573  0.0000E+00  0.0000E+00  0.0000E+00  0.0000E+00  0.0000E+00  0.0000E+00  0.0000E+00  0.0000E+00  0.0000E+00
    -21.383  0.0000E+00  0.0000E+00  0.0000E+00  0.0000E+00  0.0000E+00  0.0000E+00  0.0000E+00  0.0000E+00  0.0000E+00
    -21.193  0.0000E+00  0.0000E+00  0.0000E+00  0.0000E+00  0.0000E+00  0.0000E+00  0.0000E+00  0.0000E+00  0.0000E+00
    -21.003  0.0000E+00  0.0000E+00  0.0000E+00  0.0000E+00  0.0000E+00  0.0000E+00  0.0000E+00  0.0000E+00  0.0000E+00
    -20.813  0.0000E+00  0.0000E+00  0.0000E+00  0.0000E+00  0.0000E+00  0.0000E+00  0.0000E+00  0.0000E+00  0.0000E+00
    -20.623  0.0000E+00  0.0000E+00  0.0000E+00  0.0000E+00  0.0000E+00  0.0000E+00  0.0000E+00  0.0000E+00  0.0000E+00
    -20.433  0.0000E+00  0.0000E+00  0.0000E+00  0.0000E+00  0.0000E+00  0.0000E+00  0.0000E+00  0.0000E+00  0.0000E+00
    -20.243  0.0000E+00  0.0000E+00  0.0000E+00  0.0000E+00  0.0000E+00  0.0000E+00  0.0000E+00  0.0000E+00  0.0000E+00
    -20.053  0.0000E+00  0.0000E+00  0.0000E+00  0.0000E+00  0.0000E+00  0.0000E+00  0.0000E+00  0.0000E+00  0.0000E+00
    -19.862  0.0000E+00  0.0000E+00  0.0000E+00  0.0000E+00  0.0000E+00  0.0000E+00  0.0000E+00  0.0000E+00  0.0000E+00
    -19.672  0.0000E+00  0.0000E+00  0.0000E+00  0.0000E+00  0.0000E+00  0.0000E+00  0.0000E+00  0.0000E+00  0.0000E+00
    -19.482  0.0000E+00  0.0000E+00  0.0000E+00  0.0000E+00  0.0000E+00  0.0000E+00  0.0000E+00  0.0000E+00  0.0000E+00
    -19.292  0.0000E+00  0.0000E+00  0.0000E+00  0.0000E+00  0.0000E+00  0.0000E+00  0.0000E+00  0.0000E+00  0.0000E+00
    -19.102  0.0000E+00  0.0000E+00  0.0000E+00  0.0000E+00  0.0000E+00  0.0000E+00  0.0000E+00  0.0000E+00  0.0000E+00
    -18.912  0.0000E+00  0.0000E+00  0.0000E+00  0.0000E+00  0.0000E+00  0.0000E+00  0.0000E+00  0.0000E+00  0.0000E+00
    -18.722  0.0000E+00  0.0000E+00  0.0000E+00  0.0000E+00  0.0000E+00  0.0000E+00  0.0000E+00  0.0000E+00  0.0000E+00
    -18.532  0.0000E+00  0.0000E+00  0.0000E+00  0.0000E+00  0.0000E+00  0.0000E+00  0.0000E+00  0.0000E+00  0.0000E+00
    -18.342  0.0000E+00  0.0000E+00  0.0000E+00  0.0000E+00  0.0000E+00  0.0000E+00  0.0000E+00  0.0000E+00  0.0000E+00
    -18.152  0.0000E+00  0.0000E+00  0.0000E+00  0.0000E+00  0.0000E+00  0.0000E+00  0.0000E+00  0.0000E+00  0.0000E+00
    -17.962  0.0000E+00  0.0000E+00  0.0000E+00  0.0000E+00  0.0000E+00  0.0000E+00  0.0000E+00  0.0000E+00  0.0000E+00
    -17.772  0.0000E+00  0.0000E+00  0.0000E+00  0.0000E+00  0.0000E+00  0.0000E+00  0.0000E+00  0.0000E+00  0.0000E+00
    -17.582  0.0000E+00  0.0000E+00  0.0000E+00  0.0000E+00  0.0000E+00  0.0000E+00  0.0000E+00  0.0000E+00  0.0000E+00
    -17.392  0.0000E+00  0.0000E+00  0.0000E+00  0.0000E+00  0.0000E+00  0.0000E+00  0.0000E+00  0.0000E+00  0.0000E+00