       N       E                     dE             d eps       ncg     rms          rms(c)
RMM:   1    -0.116536425790E+04   -0.11654E+04   -0.14714E+05   184   0.131E+03
RMM:   2     0.738822162359E+03    0.19042E+04   -0.22936E+04   184   0.254E+02
RMM:   3     0.242443053263E+03   -0.49638E+03   -0.72719E+03   184   0.135E+02
RMM:   4    -0.138428725512E+02   -0.25629E+03   -0.25867E+03   184   0.976E+01
RMM:   5    -0.125430620076E+03   -0.11159E+03   -0.10226E+03   184   0.634E+01
RMM:   6    -0.171734056204E+03   -0.46303E+02   -0.42937E+02   184   0.467E+01
RMM:   7    -0.194038794851E+03   -0.22305E+02   -0.21338E+02   184   0.357E+01
RMM:   8    -0.207043856452E+03   -0.13005E+02   -0.12217E+02   184   0.306E+01
RMM:   9    -0.241708245404E+03   -0.34664E+02   -0.34432E+02   668   0.267E+01
RMM:  10    -0.259612289513E+03   -0.17904E+02   -0.17656E+02   668   0.172E+01
RMM:  11    -0.263370688542E+03   -0.37584E+01   -0.38327E+01   644   0.103E+01
RMM:  12    -0.265548468616E+03   -0.21778E+01   -0.21777E+01   631   0.759E+00    0.364E+01
RMM:  13    -0.256093611627E+03    0.94549E+01   -0.23607E+01   494   0.760E+00    0.237E+01
RMM:  14    -0.254978908451E+03    0.11147E+01   -0.19098E+01   519   0.667E+00    0.684E+00
RMM:  15    -0.255093683374E+03   -0.11477E+00   -0.41877E+00   588   0.388E+00    0.170E+00
RMM:  16    -0.255189777824E+03   -0.96094E-01   -0.13965E+00   632   0.252E+00    0.132E+00
RMM:  17    -0.255275731480E+03   -0.85954E-01   -0.81711E-01   610   0.192E+00    0.436E-01
RMM:  18    -0.255335676128E+03   -0.59945E-01   -0.61098E-01   610   0.149E+00    0.235E-01
RMM:  19    -0.255376514627E+03   -0.40838E-01   -0.41289E-01   616   0.118E+00    0.228E-01
RMM:  20    -0.255396169726E+03   -0.19655E-01   -0.20383E-01   636   0.910E-01    0.279E-01
RMM:  21    -0.255411020731E+03   -0.14851E-01   -0.16677E-01   619   0.757E-01    0.454E-01
RMM:  22    -0.255419335730E+03   -0.83150E-02   -0.83399E-02   608   0.619E-01    0.268E-01
RMM:  23    -0.255425585886E+03   -0.62502E-02   -0.70182E-02   638   0.508E-01    0.187E-01
RMM:  24    -0.255429421833E+03   -0.38359E-02   -0.42035E-02   638   0.404E-01    0.211E-01
RMM:  25    -0.255431762325E+03   -0.23405E-02   -0.26978E-02   620   0.328E-01    0.212E-01
RMM:  26    -0.255433354434E+03   -0.15921E-02   -0.20036E-02   606   0.277E-01    0.257E-01
RMM:  27    -0.255434561919E+03   -0.12075E-02   -0.12543E-02   622   0.231E-01    0.207E-01
RMM:  28    -0.255435614768E+03   -0.10528E-02   -0.96187E-03   630   0.202E-01    0.759E-02
RMM:  29    -0.255436164942E+03   -0.55017E-03   -0.67998E-03   633   0.164E-01    0.543E-02
RMM:  30    -0.255436628528E+03   -0.46359E-03   -0.48295E-03   638   0.129E-01    0.569E-02
RMM:  31    -0.255436919549E+03   -0.29102E-03   -0.28260E-03   599   0.103E-01    0.512E-02
RMM:  32    -0.255437129712E+03   -0.21016E-03   -0.21305E-03   583   0.862E-02    0.512E-02
RMM:  33    -0.255437293047E+03   -0.16333E-03   -0.16162E-03   578   0.739E-02    0.464E-02
RMM:  34    -0.255437356040E+03   -0.62993E-04   -0.10264E-03   581   0.639E-02    0.509E-02
RMM:  35    -0.255437371434E+03   -0.15394E-04   -0.80048E-04   593   0.546E-02    0.670E-02
RMM:  36    -0.255437403752E+03   -0.32319E-04   -0.60539E-04   597   0.440E-02    0.759E-02
RMM:  37    -0.255437387780E+03    0.15973E-04   -0.36372E-04   608   0.367E-02    0.919E-02
RMM:  38    -0.255437379738E+03    0.80413E-05   -0.28556E-04   597   0.307E-02    0.101E-01
RMM:  39    -0.255437411772E+03   -0.32033E-04   -0.19503E-04   535   0.256E-02    0.956E-02
RMM:  40    -0.255437449036E+03   -0.37264E-04   -0.16612E-04   555   0.228E-02    0.874E-02
RMM:  41    -0.255437469163E+03   -0.20127E-04   -0.12369E-04   494   0.191E-02    0.846E-02
RMM:  42    -0.255437480536E+03   -0.11374E-04   -0.80573E-05   487   0.161E-02    0.842E-02
RMM:  43    -0.255437493126E+03   -0.12589E-04   -0.61985E-05   439   0.141E-02    0.823E-02
RMM:  44    -0.255437496489E+03   -0.33631E-05   -0.41945E-05   400   0.125E-02    0.829E-02
RMM:  45    -0.255437501882E+03   -0.53938E-05   -0.32836E-05   397   0.113E-02    0.821E-02
RMM:  46    -0.255437502227E+03   -0.34495E-06   -0.23910E-05   389   0.104E-02    0.829E-02
RMM:  47    -0.255437504593E+03   -0.23660E-05   -0.18230E-05   361   0.965E-03    0.827E-02
RMM:  48    -0.255437506232E+03   -0.16390E-05   -0.13425E-05   345   0.901E-03    0.826E-02
RMM:  49    -0.255437507377E+03   -0.11443E-05   -0.93369E-06   311   0.856E-03    0.826E-02
RMM:  50    -0.255437507961E+03   -0.58473E-06   -0.69990E-06   308   0.827E-03
   1 F= -.25543751E+03 E0= -.25543751E+03  d E =-.255438E+03
