PROCAR lm decomposed
# of k-points:    1         # of bands:  184         # of ions:   65

 k-point     1 :    0.00000000 0.00000000 0.00000000     weight = 1.00000000

band     1 # energy  -44.44982657 # occ.  2.00000000
 
ion      s     py     pz     px    dxy    dyz    dz2    dxz  x2-y2    tot
    1  0.000  0.000  0.000  0.000  0.000  0.000  0.000  0.000  0.000  0.000
    2  0.000  0.000  0.000  0.000  0.000  0.000  0.000  0.000  0.000  0.000
    3  0.000  0.000  0.000  0.000  0.000  0.000  0.000  0.000  0.000  0.000
    4  0.000  0.000  0.000  0.000  0.000  0.000  0.000  0.000  0.000  0.000
    5  0.990  0.000  0.000  0.000  0.000  0.000  0.000  0.000  0.000  0.990
    6  0.000  0.000  0.000  0.000  0.000  0.000  0.000  0.000  0.000  0.000
    7  0.000  0.000  0.000  0.000  0.000  0.000  0.000  0.000  0.000  0.000
    8  0.000  0.000  0.000  0.000  0.000  0.000  0.000  0.000  0.000  0.000
    9  0.000  0.000  0.000  0.000  0.000  0.000  0.000  0.000  0.000  0.000
   10  0.000  0.000  0.000  0.000  0.000  0.000  0.000  0.000  0.000  0.000
   11  0.000  0.000  0.000  0.000  0.000  0.000  0.000  0.000  0.000  0.000
   12  0.000  0.000  0.000  0.000  0.000  0.000  0.000  0.000  0.000  0.000
   13  0.000  0.000  0.000  0.000  0.000  0.000  0.000  0.000  0.000  0.000
   14  0.000  0.000  0.000  0.000  0.000  0.000  0.000  0.000  0.000  0.000
   15  0.000  0.000  0.000  0.000  0.000  0.000  0.000  0.000  0.000  0.000
   16  0.000  0.000  0.000  0.000  0.000  0.000  0.000  0.000  0.000  0.000
   17  0.000  0.000  0.000  0.000  0.000  0.000  0.000  0.000  0.000  0.000
   18  0.000  0.000  0.000  0.000  0.000  0.000  0.000  0.000  0.000  0.000
   19  0.000  0.000  0.000  0.000  0.000  0.000  0.000  0.000  0.000  0.000
   20  0.000  0.000  0.000  0.000  0.000  0.000  0.000  0.000  0.000  0.000
   21  0.000  0.000  0.000  0.000  0.000  0.000  0.000  0.000  0.000  0.000
   22  0.000  0.000  0.000  0.000  0.000  0.000  0.000  0.000  0.000  0.000
   23  0.000  0.000  0.000  0.000  0.000  0.000  0.000  0.000  0.000  0.000
   24  0.000  0.000  0.000  0.000  0.000  0.000  0.000  0.000  0.000  0.000
   25  0.000  0.000  0.000  0.000  0.000  0.000  0.000  0.000  0.000  0.000
   26  0.000  0.000  0.000  0.000  0.000  0.000  0.000  0.000  0.000  0.000
   27  0.000  0.000  0.000  0.000  0.000  0.000  0.000  0.000  0.000  0.000
   28  0.000  0.000  0.000  0.000  0.000  0.000  0.000  0.000  0.000  0.000
   29  0.000  0.000  0.000  0.000  0.000  0.000  0.000  0.000  0.000  0.000
   30  0.000  0.000  0.000  0.000  0.000  0.000  0.000  0.000  0.000  0.000
   31  0.000  0.000  0.000  0.000  0.000  0.000  0.000  0.000  0.000  0.000
   32  0.000  0.000  0.000  0.000  0.000  0.000  0.000  0.000  0.000  0.000
   33  0.000  0.000  0.000  0.000  0.000  0.000  0.000  0.000  0.000  0.000
   34  0.000  0.000  0.000  0.000  0.000  0.000  0.000  0.000  0.000  0.000
   35  0.000  0.000  0.000  0.000  0.000  0.000  0.000  0.000  0.000  0.000
   36  0.000  0.000  0.000  0.000  0.000  0.000  0.000  0.000  0.000  0.000
   37  0.000  0.000  0.000  0.000  0.000  0.000  0.000  0.000  0.000  0.000
   38  0.000  0.000  0.000  0.000  0.000  0.000  0.000  0.000  0.000  0.000
   39  0.000  0.000  0.000  0.000  0.000  0.000  0.000  0.000  0.000  0.000
   40  0.000  0.000  0.000  0.000  0.000  0.000  0.000  0.000  0.000  0.000
   41  0.000  0.000  0.000  0.000  0.000  0.000  0.000  0.000  0.000  0.000
   42  0.000  0.000  0.000  0.000  0.000  0.000  0.000  0.000  0.000  0.000
   43  0.000  0.000  0.000  0.000  0.000  0.000  0.000  0.000  0.000  0.000
   44  0.000  0.000  0.000  0.000  0.000  0.000  0.000  0.000  0.000  0.000
   45  0.000  0.000  0.000  0.000  0.000  0.000  0.000  0.000  0.000  0.000
   46  0.000  0.000  0.000  0.000  0.000  0.000  0.000  0.000  0.000  0.000
   47  0.000  0.000  0.000  0.000  0.000  0.000  0.000  0.000  0.000  0.000
   48  0.000  0.000  0.000  0.000  0.000  0.000  0.000  0.000  0.000  0.000
   49  0.000  0.000  0.000  0.000  0.000  0.000  0.000  0.000  0.000  0.000
   50  0.000  0.000  0.000  0.000  0.000  0.000  0.000  0.000  0.000  0.000
   51  0.000  0.000  0.000  0.000  0.000  0.000  0.000  0.000  0.000  0.000
   52  0.000  0.000  0.000  0.000  0.000  0.000  0.000  0.000  0.000  0.000
   53  0.000  0.000  0.000  0.000  0.000  0.000  0.000  0.000  0.000  0.000
   54  0.000  0.000  0.000  0.000  0.000  0.000  0.000  0.000  0.000  0.000
   55  0.000  0.000  0.000  0.000  0.000  0.000  0.000  0.000  0.000  0.000
   56  0.000  0.000  0.000  0.000  0.000  0.000  0.000  0.000  0.000  0.000
   57  0.000  0.000  0.000  0.000  0.000  0.000  0.000  0.000  0.000  0.000
   58  0.000  0.000  0.000  0.000  0.000  0.000  0.000  0.000  0.000  0.000
   59  0.000  0.000  0.000  0.000  0.000  0.000  0.000  0.000  0.000  0.000
   60  0.000  0.000  0.000  0.000  0.000  0.000  0.000  0.000  0.000  0.000
   61  0.000  0.000  0.000  0.000  0.000  0.000  0.000  0.000  0.000  0.000
   62  0.000  0.000  0.000  0.000  0.000  0.000  0.000  0.000  0.000  0.000
   63  0.000  0.000  0.000  0.000  0.000  0.000  0.000  0.000  0.000  0.000
   64  0.000  0.000  0.000  0.000  0.000  0.000  0.000  0.000  0.000  0.000
   65  0.000  0.000  0.000  0.000  0.000  0.000  0.000  0.000  0.000  0.000
tot    0.990  0.000  0.000  0.000  0.000  0.000  0.000  0.000  0.000  0.990
 
band     2 # energy  -44.11973477 # occ.  2.00000000
 
ion      s     py     pz     px    dxy    dyz    dz2    dxz  x2-y2    tot
    1  0.000  0.000  0.000  0.000  0.000  0.000  0.000  0.000  0.000  0.000
    2  0.000  0.000  0.000  0.000  0.000  0.000  0.000  0.000  0.000  0.000
    3  0.989  0.000  0.000  0.000  0.000  0.000  0.000  0.000  0.000  0.989
    4  0.000  0.000  0.000  0.000  0.000  0.000  0.000  0.000  0.000  0.000
    5  0.000  0.000  0.000  0.000  0.000  0.000  0.000  0.000  0.000  0.000
    6  0.000  0.000  0.000  0.000  0.000  0.000  0.000  0.000  0.000  0.000
    7  0.000  0.000  0.000  0.000  0.000  0.000  0.000  0.000  0.000  0.000
    8  0.000  0.000  0.000  0.000  0.000  0.000  0.000  0.000  0.000  0.000
    9  0.000  0.000  0.000  0.000  0.000  0.000  0.000  0.000  0.000  0.000
   10  0.000  0.000  0.000  0.000  0.000  0.000  0.000  0.000  0.000  0.000
   11  0.000  0.000  0.000  0.000  0.000  0.000  0.000  0.000  0.000  0.000
   12  0.000  0.000  0.000  0.000  0.000  0.000  0.000  0.000  0.000  0.000
   13  0.000  0.000  0.000  0.000  0.000  0.000  0.000  0.000  0.000  0.000
   14  0.000  0.000  0.000  0.000  0.000  0.000  0.000  0.000  0.000  0.000
   15  0.000  0.000  0.000  0.000  0.000  0.000  0.000  0.000  0.000  0.000
   16  0.000  0.000  0.000  0.000  0.000  0.000  0.000  0.000  0.000  0.000
   17  0.000  0.000  0.000  0.000  0.000  0.000  0.000  0.000  0.000  0.000
   18  0.000  0.000  0.000  0.000  0.000  0.000  0.000  0.000  0.000  0.000
   19  0.000  0.000  0.000  0.000  0.000  0.000  0.000  0.000  0.000  0.000
   20  0.000  0.000  0.000  0.000  0.000  0.000  0.000  0.000  0.000  0.000
   21  0.000  0.000  0.000  0.000  0.000  0.000  0.000  0.000  0.000  0.000
   22  0.000  0.000  0.000  0.000  0.000  0.000  0.000  0.000  0.000  0.000
   23  0.000  0.000  0.000  0.000  0.000  0.000  0.000  0.000  0.000  0.000
   24  0.000  0.000  0.000  0.000  0.000  0.000  0.000  0.000  0.000  0.000
   25  0.000  0.000  0.000  0.000  0.000  0.000  0.000  0.000  0.000  0.000
   26  0.000  0.000  0.000  0.000  0.000  0.000  0.000  0.000  0.000  0.000
   27  0.000  0.000  0.000  0.000  0.000  0.000  0.000  0.000  0.000  0.000
   28  0.000  0.000  0.000  0.000  0.000  0.000  0.000  0.000  0.000  0.000
   29  0.000  0.000  0.000  0.000  0.000  0.000  0.000  0.000  0.000  0.000
   30  0.000  0.000  0.000  0.000  0.000  0.000  0.000  0.000  0.000  0.000
   31  0.000  0.000  0.000  0.000  0.000  0.000  0.000  0.000  0.000  0.000
   32  0.000  0.000  0.000  0.000  0.000  0.000  0.000  0.000  0.000  0.000
   33  0.000  0.000  0.000  0.000  0.000  0.000  0.000  0.000  0.000  0.000
   34  0.000  0.000  0.000  0.000  0.000  0.000  0.000  0.000  0.000  0.000
   35  0.000  0.000  0.000  0.000  0.000  0.000  0.000  0.000  0.000  0.000
   36  0.000  0.000  0.000  0.000  0.000  0.000  0.000  0.000  0.000  0.000
   37  0.000  0.000  0.000  0.000  0.000  0.000  0.000  0.000  0.000  0.000
   38  0.000  0.000  0.000  0.000  0.000  0.000  0.000  0.000  0.000  0.000
   39  0.000  0.000  0.000  0.000  0.000  0.000  0.000  0.000  0.000  0.000
   40  0.000  0.000  0.000  0.000  0.000  0.000  0.000  0.000  0.000  0.000
   41  0.000  0.000  0.000  0.000  0.000  0.000  0.000  0.000  0.000  0.000
   42  0.000  0.000  0.000  0.000  0.000  0.000  0.000  0.000  0.000  0.000
   43  0.000  0.000  0.000  0.000  0.000  0.000  0.000  0.000  0.000  0.000
   44  0.000  0.000  0.000  0.000  0.000  0.000  0.000  0.000  0.000  0.000
   45  0.000  0.000  0.000  0.000  0.000  0.000  0.000  0.000  0.000  0.000
   46  0.000  0.000  0.000  0.000  0.000  0.000  0.000  0.000  0.000  0.000
   47  0.000  0.000  0.000  0.000  0.000  0.000  0.000  0.000  0.000  0.000
   48  0.000  0.000  0.000  0.000  0.000  0.000  0.000  0.000  0.000  0.000
   49  0.000  0.000  0.000  0.000  0.000  0.000  0.000  0.000  0.000  0.000
   50  0.000  0.000  0.000  0.000  0.000  0.000  0.000  0.000  0.000  0.000
   51  0.000  0.000  0.000  0.000  0.000  0.000  0.000  0.000  0.000  0.000
   52  0.000  0.000  0.000  0.000  0.000  0.000  0.000  0.000  0.000  0.000
   53  0.000  0.000  0.000  0.000  0.000  0.000  0.000  0.000  0.000  0.000
   54  0.000  0.000  0.000  0.000  0.000  0.000  0.000  0.000  0.000  0.000
   55  0.000  0.000  0.000  0.000  0.000  0.000  0.000  0.000  0.000  0.000
   56  0.000  0.000  0.000  0.000  0.000  0.000  0.000  0.000  0.000  0.000
   57  0.000  0.000  0.000  0.000  0.000  0.000  0.000  0.000  0.000  0.000
   58  0.000  0.000  0.000  0.000  0.000  0.000  0.000  0.000  0.000  0.000
   59  0.000  0.000  0.000  0.000  0.000  0.000  0.000  0.000  0.000  0.000
   60  0.000  0.000  0.000  0.000  0.000  0.000  0.000  0.000  0.000  0.000
   61  0.000  0.000  0.000  0.000  0.000  0.000  0.000  0.000  0.000  0.000
   62  0.000  0.000  0.000  0.000  0.000  0.000  0.000  0.000  0.000  0.000
   63  0.000  0.000  0.000  0.000  0.000  0.000  0.000  0.000  0.000  0.000
   64  0.000  0.000  0.000  0.000  0.000  0.000  0.000  0.000  0.000  0.000
   65  0.000  0.000  0.000  0.000  0.000  0.000  0.000  0.000  0.000  0.000
tot    0.989  0.000  0.000  0.000  0.000  0.000  0.000  0.000  0.000  0.989
 
band     3 # energy  -43.96422143 # occ.  2.00000000
 
ion      s     py     pz     px    dxy    dyz    dz2    dxz  x2-y2    tot
    1  0.000  0.000  0.000  0.000  0.000  0.000  0.000  0.000  0.000  0.000
    2  0.000  0.000  0.000  0.000  0.000  0.000  0.000  0.000  0.000  0.000
    3  0.000  0.000  0.000  0.000  0.000  0.000  0.000  0.000  0.000  0.000
    4  0.000  0.000  0.000  0.000  0.000  0.000  0.000  0.000  0.000  0.000
    5  0.000  0.000  0.000  0.000  0.000  0.000  0.000  0.000  0.000  0.000
    6  0.000  0.000  0.000  0.000  0.000  0.000  0.000  0.000  0.000  0.000
    7  0.000  0.000  0.000  0.000  0.000  0.000  0.000  0.000  0.000  0.000
    8  0.000  0.000  0.000  0.000  0.000  0.000  0.000  0.000  0.000  0.000
    9  0.000  0.000  0.000  0.000  0.000  0.000  0.000  0.000  0.000  0.000
   10  0.000  0.000  0.000  0.000  0.000  0.000  0.000  0.000  0.000  0.000
   11  0.989  0.000  0.000  0.000  0.000  0.000  0.000  0.000  0.000  0.989
   12  0.000  0.000  0.000  0.000  0.000  0.000  0.000  0.000  0.000  0.000
   13  0.000  0.000  0.000  0.000  0.000  0.000  0.000  0.000  0.000  0.000
   14  0.000  0.000  0.000  0.000  0.000  0.000  0.000  0.000  0.000  0.000
   15  0.000  0.000  0.000  0.000  0.000  0.000  0.000  0.000  0.000  0.000
   16  0.000  0.000  0.000  0.000  0.000  0.000  0.000  0.000  0.000  0.000
   17  0.000  0.000  0.000  0.000  0.000  0.000  0.000  0.000  0.000  0.000
   18  0.000  0.000  0.000  0.000  0.000  0.000  0.000  0.000  0.000  0.000
   19  0.000  0.000  0.000  0.000  0.000  0.000  0.000  0.000  0.000  0.000
   20  0.000  0.000  0.000  0.000  0.000  0.000  0.000  0.000  0.000  0.000
   21  0.000  0.000  0.000  0.000  0.000  0.000  0.000  0.000  0.000  0.000
   22  0.000  0.000  0.000  0.000  0.000  0.000  0.000  0.000  0.000  0.000
   23  0.000  0.000  0.000  0.000  0.000  0.000  0.000  0.000  0.000  0.000
   24  0.000  0.000  0.000  0.000  0.000  0.000  0.000  0.000  0.000  0.000
   25  0.000  0.000  0.000  0.000  0.000  0.000  0.000  0.000  0.000  0.000
   26  0.000  0.000  0.000  0.000  0.000  0.000  0.000  0.000  0.000  0.000
   27  0.000  0.000  0.000  0.000  0.000  0.000  0.000  0.000  0.000  0.000
   28  0.000  0.000  0.000  0.000  0.000  0.000  0.000  0.000  0.000  0.000
   29  0.000  0.000  0.000  0.000  0.000  0.000  0.000  0.000  0.000  0.000
   30  0.000  0.000  0.000  0.000  0.000  0.000  0.000  0.000  0.000  0.000
   31  0.000  0.000  0.000  0.000  0.000  0.000  0.000  0.000  0.000  0.000
   32  0.000  0.000  0.000  0.000  0.000  0.000  0.000  0.000  0.000  0.000
   33  0.000  0.000  0.000  0.000  0.000  0.000  0.000  0.000  0.000  0.000
   34  0.000  0.000  0.000  0.000  0.000  0.000  0.000  0.000  0.000  0.000
   35  0.000  0.000  0.000  0.000  0.000  0.000  0.000  0.000  0.000  0.000
   36  0.000  0.000  0.000  0.000  0.000  0.000  0.000  0.000  0.000  0.000
   37  0.000  0.000  0.000  0.000  0.000  0.000  0.000  0.000  0.000  0.000
   38  0.000  0.000  0.000  0.000  0.000  0.000  0.000  0.000  0.000  0.000
   39  0.000  0.000  0.000  0.000  0.000  0.000  0.000  0.000  0.000  0.000
   40  0.000  0.000  0.000  0.000  0.000  0.000  0.000  0.000  0.000  0.000
   41  0.000  0.000  0.000  0.000  0.000  0.000  0.000  0.000  0.000  0.000
   42  0.000  0.000  0.000  0.000  0.000  0.000  0.000  0.000  0.000  0.000
   43  0.000  0.000  0.000  0.000  0.000  0.000  0.000  0.000  0.000  0.000
   44  0.000  0.000  0.000  0.000  0.000  0.000  0.000  0.000  0.000  0.000
   45  0.000  0.000  0.000  0.000  0.000  0.000  0.000  0.000  0.000  0.000
   46  0.000  0.000  0.000  0.000  0.000  0.000  0.000  0.000  0.000  0.000
   47  0.000  0.000  0.000  0.000  0.000  0.000  0.000  0.000  0.000  0.000
   48  0.000  0.000  0.000  0.000  0.000  0.000  0.000  0.000  0.000  0.000
   49  0.000  0.000  0.000  0.000  0.000  0.000  0.000  0.000  0.000  0.000
   50  0.000  0.000  0.000  0.000  0.000  0.000  0.000  0.000  0.000  0.000
   51  0.000  0.000  0.000  0.000  0.000  0.000  0.000  0.000  0.000  0.000
   52  0.000  0.000  0.000  0.000  0.000  0.000  0.000  0.000  0.000  0.000
   53  0.000  0.000  0.000  0.000  0.000  0.000  0.000  0.000  0.000  0.000
   54  0.000  0.000  0.000  0.000  0.000  0.000  0.000  0.000  0.000  0.000
   55  0.000  0.000  0.000  0.000  0.000  0.000  0.000  0.000  0.000  0.000
   56  0.000  0.000  0.000  0.000  0.000  0.000  0.000  0.000  0.000  0.000
   57  0.000  0.000  0.000  0.000  0.000  0.000  0.000  0.000  0.000  0.000
   58  0.000  0.000  0.000  0.000  0.000  0.000  0.000  0.000  0.000  0.000
   59  0.000  0.000  0.000  0.000  0.000  0.000  0.000  0.000  0.000  0.000
   60  0.000  0.000  0.000  0.000  0.000  0.000  0.000  0.000  0.000  0.000
   61  0.000  0.000  0.000  0.000  0.000  0.000  0.000  0.000  0.000  0.000
   62  0.000  0.000  0.000  0.000  0.000  0.000  0.000  0.000  0.000  0.000
   63  0.000  0.000  0.000  0.000  0.000  0.000  0.000  0.000  0.000  0.000
   64  0.000  0.000  0.000  0.000  0.000  0.000  0.000  0.000  0.000  0.000
   65  0.000  0.000  0.000  0.000  0.000  0.000  0.000  0.000  0.000  0.000
tot    0.989  0.000  0.000  0.000  0.000  0.000  0.000  0.000  0.000  0.989
 
band     4 # energy  -43.93254749 # occ.  2.00000000
 
ion      s     py     pz     px    dxy    dyz    dz2    dxz  x2-y2    tot
    1  0.000  0.000  0.000  0.000  0.000  0.000  0.000  0.000  0.000  0.000
    2  0.000  0.000  0.000  0.000  0.000  0.000  0.000  0.000  0.000  0.000
    3  0.000  0.000  0.000  0.000  0.000  0.000  0.000  0.000  0.000  0.000
    4  0.000  0.000  0.000  0.000  0.000  0.000  0.000  0.000  0.000  0.000
    5  0.000  0.000  0.000  0.000  0.000  0.000  0.000  0.000  0.000  0.000
    6  0.000  0.000  0.000  0.000  0.000  0.000  0.000  0.000  0.000  0.000
    7  0.000  0.000  0.000  0.000  0.000  0.000  0.000  0.000  0.000  0.000
    8  0.000  0.000  0.000  0.000  0.000  0.000  0.000  0.000  0.000  0.000
    9  0.000  0.000  0.000  0.000  0.000  0.000  0.000  0.000  0.000  0.000
   10  0.000  0.000  0.000  0.000  0.000  0.000  0.000  0.000  0.000  0.000
   11  0.000  0.000  0.000  0.000  0.000  0.000  0.000  0.000  0.000  0.000
   12  0.000  0.000  0.000  0.000  0.000  0.000  0.000  0.000  0.000  0.000
   13  0.000  0.000  0.000  0.000  0.000  0.000  0.000  0.000  0.000  0.000
   14  0.000  0.000  0.000  0.000  0.000  0.000  0.000  0.000  0.000  0.000
   15  0.000  0.000  0.000  0.000  0.000  0.000  0.000  0.000  0.000  0.000
   16  0.000  0.000  0.000  0.000  0.000  0.000  0.000  0.000  0.000  0.000
   17  0.000  0.000  0.000  0.000  0.000  0.000  0.000  0.000  0.000  0.000
   18  0.000  0.000  0.000  0.000  0.000  0.000  0.000  0.000  0.000  0.000
   19  0.000  0.000  0.000  0.000  0.000  0.000  0.000  0.000  0.000  0.000
   20  0.000  0.000  0.000  0.000  0.000  0.000  0.000  0.000  0.000  0.000
   21  0.000  0.000  0.000  0.000  0.000  0.000  0.000  0.000  0.000  0.000
   22  0.990  0.000  0.000  0.000  0.000  0.000  0.000  0.000  0.000  0.990
   23  0.000  0.000  0.000  0.000  0.000  0.000  0.000  0.000  0.000  0.000
   24  0.000  0.000  0.000  0.000  0.000  0.000  0.000  0.000  0.000  0.000
   25  0.000  0.000  0.000  0.000  0.000  0.000  0.000  0.000  0.000  0.000
   26  0.000  0.000  0.000  0.000  0.000  0.000  0.000  0.000  0.000  0.000
   27  0.000  0.000  0.000  0.000  0.000  0.000  0.000  0.000  0.000  0.000
   28  0.000  0.000  0.000  0.000  0.000  0.000  0.000  0.000  0.000  0.000
   29  0.000  0.000  0.000  0.000  0.000  0.000  0.000  0.000  0.000  0.000
   30  0.000  0.000  0.000  0.000  0.000  0.000  0.000  0.000  0.000  0.000
   31  0.000  0.000  0.000  0.000  0.000  0.000  0.000  0.000  0.000  0.000
   32  0.000  0.000  0.000  0.000  0.000  0.000  0.000  0.000  0.000  0.000
   33  0.000  0.000  0.000  0.000  0.000  0.000  0.000  0.000  0.000  0.000
   34  0.000  0.000  0.000  0.000  0.000  0.000  0.000  0.000  0.000  0.000
   35  0.000  0.000  0.000  0.000  0.000  0.000  0.000  0.000  0.000  0.000
   36  0.000  0.000  0.000  0.000  0.000  0.000  0.000  0.000  0.000  0.000
   37  0.000  0.000  0.000  0.000  0.000  0.000  0.000  0.000  0.000  0.000
   38  0.000  0.000  0.000  0.000  0.000  0.000  0.000  0.000  0.000  0.000
   39  0.000  0.000  0.000  0.000  0.000  0.000  0.000  0.000  0.000  0.000
   40  0.000  0.000  0.000  0.000  0.000  0.000  0.000  0.000  0.000  0.000
   41  0.000  0.000  0.000  0.000  0.000  0.000  0.000  0.000  0.000  0.000
   42  0.000  0.000  0.000  0.000  0.000  0.000  0.000  0.000  0.000  0.000
   43  0.000  0.000  0.000  0.000  0.000  0.000  0.000  0.000  0.000  0.000
   44  0.000  0.000  0.000  0.000  0.000  0.000  0.000  0.000  0.000  0.000
   45  0.000  0.000  0.000  0.000  0.000  0.000  0.000  0.000  0.000  0.000
   46  0.000  0.000  0.000  0.000  0.000  0.000  0.000  0.000  0.000  0.000
   47  0.000  0.000  0.000  0.000  0.000  0.000  0.000  0.000  0.000  0.000
   48  0.000  0.000  0.000  0.000  0.000  0.000  0.000  0.000  0.000  0.000
   49  0.000  0.000  0.000  0.000  0.000  0.000  0.000  0.000  0.000  0.000
   50  0.000  0.000  0.000  0.000  0.000  0.000  0.000  0.000  0.000  0.000
   51  0.000  0.000  0.000  0.000  0.000  0.000  0.000  0.000  0.000  0.000
   52  0.000  0.000  0.000  0.000  0.000  0.000  0.000  0.000  0.000  0.000
   53  0.000  0.000  0.000  0.000  0.000  0.000  0.000  0.000  0.000  0.000
   54  0.000  0.000  0.000  0.000  0.000  0.000  0.000  0.000  0.000  0.000
   55  0.000  0.000  0.000  0.000  0.000  0.000  0.000  0.000  0.000  0.000
   56  0.000  0.000  0.000  0.000  0.000  0.000  0.000  0.000  0.000  0.000
   57  0.000  0.000  0.000  0.000  0.000  0.000  0.000  0.000  0.000  0.000
   58  0.000  0.000  0.000  0.000  0.000  0.000  0.000  0.000  0.000  0.000
   59  0.000  0.000  0.000  0.000  0.000  0.000  0.000  0.000  0.000  0.000
   60  0.000  0.000  0.000  0.000  0.000  0.000  0.000  0.000  0.000  0.000
   61  0.000  0.000  0.000  0.000  0.000  0.000  0.000  0.000  0.000  0.000
   62  0.000  0.000  0.000  0.000  0.000  0.000  0.000  0.000  0.000  0.000
   63  0.000  0.000  0.000  0.000  0.000  0.000  0.000  0.000  0.000  0.000
   64  0.000  0.000  0.000  0.000  0.000  0.000  0.000  0.000  0.000  0.000
   65  0.000  0.000  0.000  0.000  0.000  0.000  0.000  0.000  0.000  0.000
tot    0.990  0.000  0.000  0.000  0.000  0.000  0.000  0.000  0.000  0.990
 
band     5 # energy  -43.87613334 # occ.  2.00000000
 
ion      s     py     pz     px    dxy    dyz    dz2    dxz  x2-y2    tot
    1  0.000  0.000  0.000  0.000  0.000  0.000  0.000  0.000  0.000  0.000
    2  0.000  0.000  0.000  0.000  0.000  0.000  0.000  0.000  0.000  0.000
    3  0.000  0.000  0.000  0.000  0.000  0.000  0.000  0.000  0.000  0.000
    4  0.000  0.000  0.000  0.000  0.000  0.000  0.000  0.000  0.000  0.000
    5  0.000  0.000  0.000  0.000  0.000  0.000  0.000  0.000  0.000  0.000
    6  0.000  0.000  0.000  0.000  0.000  0.000  0.000  0.000  0.000  0.000
    7  0.000  0.000  0.000  0.000  0.000  0.000  0.000  0.000  0.000  0.000
    8  0.000  0.000  0.000  0.000  0.000  0.000  0.000  0.000  0.000  0.000
    9  0.000  0.000  0.000  0.000  0.000  0.000  0.000  0.000  0.000  0.000
   10  0.000  0.000  0.000  0.000  0.000  0.000  0.000  0.000  0.000  0.000
   11  0.000  0.000  0.000  0.000  0.000  0.000  0.000  0.000  0.000  0.000
   12  0.000  0.000  0.000  0.000  0.000  0.000  0.000  0.000  0.000  0.000
   13  0.000  0.000  0.000  0.000  0.000  0.000  0.000  0.000  0.000  0.000
   14  0.000  0.000  0.000  0.000  0.000  0.000  0.000  0.000  0.000  0.000
   15  0.000  0.000  0.000  0.000  0.000  0.000  0.000  0.000  0.000  0.000
   16  0.000  0.000  0.000  0.000  0.000  0.000  0.000  0.000  0.000  0.000
   17  0.000  0.000  0.000  0.000  0.000  0.000  0.000  0.000  0.000  0.000
   18  0.000  0.000  0.000  0.000  0.000  0.000  0.000  0.000  0.000  0.000
   19  0.000  0.000  0.000  0.000  0.000  0.000  0.000  0.000  0.000  0.000
   20  0.000  0.000  0.000  0.000  0.000  0.000  0.000  0.000  0.000  0.000
   21  0.000  0.000  0.000  0.000  0.000  0.000  0.000  0.000  0.000  0.000
   22  0.000  0.000  0.000  0.000  0.000  0.000  0.000  0.000  0.000  0.000
   23  0.000  0.000  0.000  0.000  0.000  0.000  0.000  0.000  0.000  0.000
   24  0.000  0.000  0.000  0.000  0.000  0.000  0.000  0.000  0.000  0.000
   25  0.000  0.000  0.000  0.000  0.000  0.000  0.000  0.000  0.000  0.000
   26  0.989  0.000  0.000  0.000  0.000  0.000  0.000  0.000  0.000  0.989
   27  0.000  0.000  0.000  0.000  0.000  0.000  0.000  0.000  0.000  0.000
   28  0.000  0.000  0.000  0.000  0.000  0.000  0.000  0.000  0.000  0.000
   29  0.000  0.000  0.000  0.000  0.000  0.000  0.000  0.000  0.000  0.000
   30  0.000  0.000  0.000  0.000  0.000  0.000  0.000  0.000  0.000  0.000
   31  0.000  0.000  0.000  0.000  0.000  0.000  0.000  0.000  0.000  0.000
   32  0.000  0.000  0.000  0.000  0.000  0.000  0.000  0.000  0.000  0.000
   33  0.000  0.000  0.000  0.000  0.000  0.000  0.000  0.000  0.000  0.000
   34  0.000  0.000  0.000  0.000  0.000  0.000  0.000  0.000  0.000  0.000
   35  0.000  0.000  0.000  0.000  0.000  0.000  0.000  0.000  0.000  0.000
   36  0.000  0.000  0.000  0.000  0.000  0.000  0.000  0.000  0.000  0.000
   37  0.000  0.000  0.000  0.000  0.000  0.000  0.000  0.000  0.000  0.000
   38  0.000  0.000  0.000  0.000  0.000  0.000  0.000  0.000  0.000  0.000
   39  0.000  0.000  0.000  0.000  0.000  0.000  0.000  0.000  0.000  0.000
   40  0.000  0.000  0.000  0.000  0.000  0.000  0.000  0.000  0.000  0.000
   41  0.000  0.000  0.000  0.000  0.000  0.000  0.000  0.000  0.000  0.000
   42  0.000  0.000  0.000  0.000  0.000  0.000  0.000  0.000  0.000  0.000
   43  0.000  0.000  0.000  0.000  0.000  0.000  0.000  0.000  0.000  0.000
   44  0.000  0.000  0.000  0.000  0.000  0.000  0.000  0.000  0.000  0.000
   45  0.000  0.000  0.000  0.000  0.000  0.000  0.000  0.000  0.000  0.000
   46  0.000  0.000  0.000  0.000  0.000  0.000  0.000  0.000  0.000  0.000
   47  0.000  0.000  0.000  0.000  0.000  0.000  0.000  0.000  0.000  0.000
   48  0.000  0.000  0.000  0.000  0.000  0.000  0.000  0.000  0.000  0.000
   49  0.000  0.000  0.000  0.000  0.000  0.000  0.000  0.000  0.000  0.000
   50  0.000  0.000  0.000  0.000  0.000  0.000  0.000  0.000  0.000  0.000
   51  0.000  0.000  0.000  0.000  0.000  0.000  0.000  0.000  0.000  0.000
   52  0.000  0.000  0.000  0.000  0.000  0.000  0.000  0.000  0.000  0.000
   53  0.000  0.000  0.000  0.000  0.000  0.000  0.000  0.000  0.000  0.000
   54  0.000  0.000  0.000  0.000  0.000  0.000  0.000  0.000  0.000  0.000
   55  0.000  0.000  0.000  0.000  0.000  0.000  0.000  0.000  0.000  0.000
   56  0.000  0.000  0.000  0.000  0.000  0.000  0.000  0.000  0.000  0.000
   57  0.000  0.000  0.000  0.000  0.000  0.000  0.000  0.000  0.000  0.000
   58  0.000  0.000  0.000  0.000  0.000  0.000  0.000  0.000  0.000  0.000
   59  0.000  0.000  0.000  0.000  0.000  0.000  0.000  0.000  0.000  0.000
   60  0.000  0.000  0.000  0.000  0.000  0.000  0.000  0.000  0.000  0.000
   61  0.000  0.000  0.000  0.000  0.000  0.000  0.000  0.000  0.000  0.000
   62  0.000  0.000  0.000  0.000  0.000  0.000  0.000  0.000  0.000  0.000
   63  0.000  0.000  0.000  0.000  0.000  0.000  0.000  0.000  0.000  0.000
   64  0.000  0.000  0.000  0.000  0.000  0.000  0.000  0.000  0.000  0.000
   65  0.000  0.000  0.000  0.000  0.000  0.000  0.000  0.000  0.000  0.000
tot    0.989  0.000  0.000  0.000  0.000  0.000  0.000  0.000  0.000  0.989
 
band     6 # energy  -43.66303423 # occ.  2.00000000
 
ion      s     py     pz     px    dxy    dyz    dz2    dxz  x2-y2    tot
    1  0.000  0.000  0.000  0.000  0.000  0.000  0.000  0.000  0.000  0.000
    2  0.000  0.000  0.000  0.000  0.000  0.000  0.000  0.000  0.000  0.000
    3  0.000  0.000  0.000  0.000  0.000  0.000  0.000  0.000  0.000  0.000
    4  0.000  0.000  0.000  0.000  0.000  0.000  0.000  0.000  0.000  0.000
    5  0.000  0.000  0.000  0.000  0.000  0.000  0.000  0.000  0.000  0.000
    6  0.989  0.000  0.000  0.000  0.000  0.000  0.000  0.000  0.000  0.989
    7  0.000  0.000  0.000  0.000  0.000  0.000  0.000  0.000  0.000  0.000
    8  0.000  0.000  0.000  0.000  0.000  0.000  0.000  0.000  0.000  0.000
    9  0.000  0.000  0.000  0.000  0.000  0.000  0.000  0.000  0.000  0.000
   10  0.000  0.000  0.000  0.000  0.000  0.000  0.000  0.000  0.000  0.000
   11  0.000  0.000  0.000  0.000  0.000  0.000  0.000  0.000  0.000  0.000
   12  0.000  0.000  0.000  0.000  0.000  0.000  0.000  0.000  0.000  0.000
   13  0.000  0.000  0.000  0.000  0.000  0.000  0.000  0.000  0.000  0.000
   14  0.000  0.000  0.000  0.000  0.000  0.000  0.000  0.000  0.000  0.000
   15  0.000  0.000  0.000  0.000  0.000  0.000  0.000  0.000  0.000  0.000
   16  0.000  0.000  0.000  0.000  0.000  0.000  0.000  0.000  0.000  0.000
   17  0.000  0.000  0.000  0.000  0.000  0.000  0.000  0.000  0.000  0.000
   18  0.000  0.000  0.000  0.000  0.000  0.000  0.000  0.000  0.000  0.000
   19  0.000  0.000  0.000  0.000  0.000  0.000  0.000  0.000  0.000  0.000
   20  0.000  0.000  0.000  0.000  0.000  0.000  0.000  0.000  0.000  0.000
   21  0.000  0.000  0.000  0.000  0.000  0.000  0.000  0.000  0.000  0.000
   22  0.000  0.000  0.000  0.000  0.000  0.000  0.000  0.000  0.000  0.000
   23  0.000  0.000  0.000  0.000  0.000  0.000  0.000  0.000  0.000  0.000
   24  0.000  0.000  0.000  0.000  0.000  0.000  0.000  0.000  0.000  0.000
   25  0.000  0.000  0.000  0.000  0.000  0.000  0.000  0.000  0.000  0.000
   26  0.000  0.000  0.000  0.000  0.000  0.000  0.000  0.000  0.000  0.000
   27  0.000  0.000  0.000  0.000  0.000  0.000  0.000  0.000  0.000  0.000
   28  0.000  0.000  0.000  0.000  0.000  0.000  0.000  0.000  0.000  0.000
   29  0.000  0.000  0.000  0.000  0.000  0.000  0.000  0.000  0.000  0.000
   30  0.000  0.000  0.000  0.000  0.000  0.000  0.000  0.000  0.000  0.000
   31  0.000  0.000  0.000  0.000  0.000  0.000  0.000  0.000  0.000  0.000
   32  0.000  0.000  0.000  0.000  0.000  0.000  0.000  0.000  0.000  0.000
   33  0.000  0.000  0.000  0.000  0.000  0.000  0.000  0.000  0.000  0.000
   34  0.000  0.000  0.000  0.000  0.000  0.000  0.000  0.000  0.000  0.000
   35  0.000  0.000  0.000  0.000  0.000  0.000  0.000  0.000  0.000  0.000
   36  0.000  0.000  0.000  0.000  0.000  0.000  0.000  0.000  0.000  0.000
   37  0.000  0.000  0.000  0.000  0.000  0.000  0.000  0.000  0.000  0.000
   38  0.000  0.000  0.000  0.000  0.000  0.000  0.000  0.000  0.000  0.000
   39  0.000  0.000  0.000  0.000  0.000  0.000  0.000  0.000  0.000  0.000
   40  0.000  0.000  0.000  0.000  0.000  0.000  0.000  0.000  0.000  0.000
   41  0.000  0.000  0.000  0.000  0.000  0.000  0.000  0.000  0.000  0.000
   42  0.000  0.000  0.000  0.000  0.000  0.000  0.000  0.000  0.000  0.000
   43  0.000  0.000  0.000  0.000  0.000  0.000  0.000  0.000  0.000  0.000
   44  0.000  0.000  0.000  0.000  0.000  0.000  0.000  0.000  0.000  0.000
   45  0.000  0.000  0.000  0.000  0.000  0.000  0.000  0.000  0.000  0.000
   46  0.000  0.000  0.000  0.000  0.000  0.000  0.000  0.000  0.000  0.000
   47  0.000  0.000  0.000  0.000  0.000  0.000  0.000  0.000  0.000  0.000
   48  0.000  0.000  0.000  0.000  0.000  0.000  0.000  0.000  0.000  0.000
   49  0.000  0.000  0.000  0.000  0.000  0.000  0.000  0.000  0.000  0.000
   50  0.000  0.000  0.000  0.000  0.000  0.000  0.000  0.000  0.000  0.000
   51  0.000  0.000  0.000  0.000  0.000  0.000  0.000  0.000  0.000  0.000
   52  0.000  0.000  0.000  0.000  0.000  0.000  0.000  0.000  0.000  0.000