<?xml version="1.0" encoding="ISO-8859-1"?>
<modeling>
 <generator>
  <i name="program" type="string">vasp </i>
  <i name="version" type="string">5.4.4.18Apr17-6-g9f103f2a35  </i>
  <i name="subversion" type="string">(build Jan 22 2020 12:49:05) complex            parallel </i>
  <i name="platform" type="string">Bebop BDW IPS19.0.5 gcc9.2.0 </i>
  <i name="date" type="string">2022 09 29 </i>
  <i name="time" type="string">10:04:41 </i>
 </generator>
 <incar>
  <i type="string" name="SYSTEM"> LPSC</i>
  <i type="string" name="PREC">normal</i>
  <i type="int" name="IALGO">    48</i>
  <i type="int" name="ISPIN">     1</i>
  <i type="int" name="NELM">   100</i>
  <i type="int" name="IBRION">     2</i>
  <i name="EDIFF">      0.00000100</i>
  <i name="EDIFFG">     -0.01000000</i>
  <i type="int" name="NSW">     1</i>
  <i type="int" name="ISIF">     2</i>
  <i type="int" name="ISYM">     0</i>
  <i name="ENCUT">    500.00000000</i>
  <i type="int" name="ISMEAR">     0</i>
  <i name="SIGMA">      0.05000000</i>
  <i type="logical" name="LWAVE"> F  </i>
  <i type="logical" name="LCHARG"> F  </i>
  <i type="int" name="LORBIT">    11</i>
  <v type="int" name="KPOINT_BSE">    -1     0     0     0</v>
  <i type="int" name="NELM">   100</i>
 </incar>
 <structure name="primitive_cell" >
  <crystal>
   <varray name="basis" >
    <v>      10.25000000       0.00000000       0.00000000 </v>
    <v>       0.00000000      10.25000000       0.00000000 </v>
    <v>       0.00000000       0.00000000      12.35000000 </v>
   </varray>
   <i name="volume">   1297.52187500 </i>
   <varray name="rec_basis" >
    <v>       0.09756098       0.00000000       0.00000000 </v>
    <v>       0.00000000       0.09756098       0.00000000 </v>
    <v>       0.00000000       0.00000000       0.08097166 </v>
   </varray>
  </crystal>
  <varray name="positions" >
   <v>      -0.37759122      -0.09577268      -0.00805668 </v>
   <v>      -0.22028000       0.06395824      -0.03268826 </v>
   <v>      -0.29395122      -0.28490244       0.08858300 </v>
   <v>       0.41458049      -0.00436098       0.07566251 </v>
   <v>       0.44924878      -0.07642244      -0.17674494 </v>
   <v>      -0.35665268      -0.12776976       0.24271255 </v>
   <v>      -0.07146829      -0.10474049       0.01231296 </v>
   <v>      -0.32392683       0.05244146      -0.22913765 </v>
   <v>       0.47935024      -0.34271707       0.15217328 </v>
   <v>      -0.40615512       0.24753951      -0.00076113 </v>
   <v>      -0.42722537      -0.14172000      -0.29771579 </v>
   <v>       0.39374927      -0.37085366      -0.04330364 </v>
   <v>      -0.37854049      -0.46716293      -0.01667206 </v>
   <v>       0.38249951      -0.10629366       0.22786640 </v>
   <v>      -0.44417561      -0.35940195      -0.22355223 </v>
   <v>       0.43647024       0.18071902       0.15088421 </v>
   <v>       0.37352098       0.10917366      -0.19673684 </v>
   <v>      -0.46554829       0.24014244      -0.18705263 </v>
   <v>      -0.24629951       0.04442195       0.29153117 </v>
   <v>      -0.11377366      -0.41282829       0.02683830 </v>
   <v>      -0.16390537       0.20719220      -0.17468016 </v>
   <v>      -0.22930537      -0.44327317      -0.17470445 </v>
   <v>      -0.08836390       0.21614439       0.03738826 </v>
   <v>      -0.49123024       0.07386166       0.30938947 </v>
   <v>       0.22682439      -0.26064488      -0.13211336 </v>
   <v>      -0.24288195      -0.43591317       0.22061134 </v>
   <v>      -0.33154537       0.26764780       0.22256680 </v>
   <v>       0.23429366       0.17288585       0.03431555 </v>
   <v>       0.08345463      -0.26405951       0.02309628 </v>
   <v>      -0.24445951       0.37412976       0.07190016 </v>
   <v>      -0.03632000      -0.30631122      -0.27422429 </v>
   <v>      -0.48790537      -0.38697073       0.33564049 </v>
   <v>      -0.04463805      -0.36156976       0.28925506 </v>
   <v>      -0.16388195       0.10799610      -0.40114251 </v>
   <v>       0.27504390       0.47785561      -0.11313360 </v>
   <v>       0.10521171      -0.11062829      -0.25042996 </v>
   <v>      -0.39680878       0.25866341      -0.37333441 </v>
   <v>       0.15150634      -0.31539415       0.18914089 </v>
   <v>      -0.26860390      -0.43082439      -0.38625668 </v>
   <v>       0.07090820       0.25172488      -0.10408097 </v>
   <v>       0.43658537      -0.01766829      -0.46445020 </v>
   <v>       0.06453688       0.22133073       0.18082348 </v>
   <v>      -0.30006927       0.11759610       0.44795142 </v>
   <v>       0.30617951      -0.38655024       0.33918785 </v>
   <v>      -0.01647805      -0.07054927      -0.40636437 </v>
   <v>       0.20478341       0.06034946      -0.34540000 </v>
   <v>      -0.16499805      -0.25699317      -0.45848745 </v>
   <v>       0.25241951       0.18204976       0.31944858 </v>
   <v>      -0.20900390       0.39078732      -0.27869393 </v>
   <v>      -0.07554732       0.36304195       0.23593279 </v>
   <v>       0.18184585      -0.43864390      -0.25856194 </v>
   <v>      -0.47578634       0.48344585      -0.39451903 </v>
   <v>      -0.20041756       0.32277854       0.37584049 </v>
   <v>       0.19796000       0.37498439       0.13787935 </v>
   <v>       0.46452488       0.19585366       0.46420405 </v>
   <v>       0.09179883       0.42254049      -0.01419433 </v>
   <v>       0.03031229       0.35795805      -0.26827530 </v>
   <v>       0.31102634      -0.47722732      -0.41077652 </v>
   <v>       0.03116341       0.18760293      -0.41646964 </v>
   <v>      -0.02681854      -0.37601366       0.46072955 </v>
   <v>       0.20104976      -0.08814634       0.49796680 </v>
   <v>       0.46143220       0.40170829       0.44096113 </v>
   <v>       0.19393366      -0.29191024       0.48315466 </v>
   <v>       0.22949268       0.44204000       0.41257652 </v>
   <v>       0.01073463       0.35574634       0.45530364 </v>
  </varray>
 </structure>
 <varray name="primitive_index" >
  <v type="int" >        1 </v>
  <v type="int" >       51 </v>
  <v type="int" >       54 </v>
  <v type="int" >       59 </v>
  <v type="int" >       38 </v>
  <v type="int" >       27 </v>
  <v type="int" >       30 </v>
  <v type="int" >       28 </v>
  <v type="int" >       19 </v>
  <v type="int" >       15 </v>
  <v type="int" >       58 </v>
  <v type="int" >       43 </v>
  <v type="int" >       17 </v>
  <v type="int" >       37 </v>
  <v type="int" >       26 </v>
  <v type="int" >       56 </v>
  <v type="int" >       36 </v>
  <v type="int" >       57 </v>
  <v type="int" >       64 </v>
  <v type="int" >       12 </v>
  <v type="int" >       16 </v>
  <v type="int" >       47 </v>
  <v type="int" >       24 </v>
  <v type="int" >        8 </v>
  <v type="int" >       20 </v>
  <v type="int" >        7 </v>
  <v type="int" >       21 </v>
  <v type="int" >        3 </v>
  <v type="int" >       65 </v>
  <v type="int" >       46 </v>
  <v type="int" >       22 </v>
  <v type="int" >       42 </v>
  <v type="int" >       49 </v>
  <v type="int" >       52 </v>
  <v type="int" >       32 </v>
  <v type="int" >       63 </v>
  <v type="int" >       29 </v>
  <v type="int" >        4 </v>
  <v type="int" >        2 </v>
  <v type="int" >       48 </v>
  <v type="int" >       11 </v>
  <v type="int" >       50 </v>
  <v type="int" >       25 </v>
  <v type="int" >       31 </v>
  <v type="int" >        9 </v>
  <v type="int" >        6 </v>
  <v type="int" >       40 </v>
  <v type="int" >        5 </v>
  <v type="int" >       55 </v>
  <v type="int" >       10 </v>
  <v type="int" >       45 </v>
  <v type="int" >       61 </v>
  <v type="int" >       62 </v>
  <v type="int" >       44 </v>
  <v type="int" >       53 </v>
  <v type="int" >       33 </v>
  <v type="int" >       13 </v>
  <v type="int" >       14 </v>
  <v type="int" >       41 </v>
  <v type="int" >       35 </v>
  <v type="int" >       39 </v>
  <v type="int" >       18 </v>
  <v type="int" >       34 </v>
  <v type="int" >       60 </v>
  <v type="int" >       23 </v>
 </varray>
 <kpoints>
  <generation param="Gamma">
   <v type="int" name="divisions">       1        1        1 </v>
   <v name="usershift">      0.00000000       0.00000000       0.00000000 </v>
   <v name="genvec1">      1.00000000       0.00000000       0.00000000 </v>
   <v name="genvec2">      0.00000000       1.00000000       0.00000000 </v>
   <v name="genvec3">      0.00000000       0.00000000       1.00000000 </v>
   <v name="shift">      0.00000000       0.00000000       0.00000000 </v>
  </generation>
  <varray name="kpointlist" >
   <v>       0.00000000       0.00000000       0.00000000 </v>
  </varray>
  <varray name="weights" >
   <v>       1.00000000 </v>
  </varray>
 </kpoints>
 <parameters>
  <separator name="general" >
   <i type="string" name="SYSTEM">LPSC</i>
   <i type="logical" name="LCOMPAT"> F  </i>
  </separator>
  <separator name="electronic" >
   <i type="string" name="PREC">normal</i>
   <i name="ENMAX">    500.00000000</i>
   <i name="ENAUG">    628.94500000</i>
   <i name="EDIFF">      0.00000100</i>
   <i type="int" name="IALGO">    48</i>
   <i type="int" name="IWAVPR">    11</i>
   <i type="int" name="NBANDS">   184</i>
   <i name="NELECT">    300.00000000</i>
   <i type="int" name="TURBO">     0</i>
   <i type="int" name="IRESTART">     0</i>
   <i type="int" name="NREBOOT">     0</i>
   <i type="int" name="NMIN">     0</i>
   <i name="EREF">      0.00000000</i>
   <separator name="electronic smearing" >
    <i type="int" name="ISMEAR">     0</i>
    <i name="SIGMA">      0.05000000</i>
    <i name="KSPACING">      0.50000000</i>
    <i type="logical" name="KGAMMA"> T  </i>
   </separator>
   <separator name="electronic projectors" >
    <i type="logical" name="LREAL"> F  </i>
    <v name="ROPT">      0.00000000      0.00000000      0.00000000      0.00000000</v>
    <i type="int" name="LMAXPAW">  -100</i>
    <i type="int" name="LMAXMIX">     2</i>
    <i type="logical" name="NLSPLINE"> F  </i>
   </separator>
   <separator name="electronic startup" >
    <i type="int" name="ISTART">     0</i>
    <i type="int" name="ICHARG">     2</i>
    <i type="int" name="INIWAV">     1</i>
   </separator>
   <separator name="electronic spin" >
    <i type="int" name="ISPIN">     1</i>
    <i type="logical" name="LNONCOLLINEAR"> F  </i>
    <v name="MAGMOM">      1.00000000      1.00000000      1.00000000      1.00000000      1.00000000      1.00000000      1.00000000      1.00000000      1.00000000      1.00000000      1.00000000      1.00000000      1.00000000      1.00000000      1.00000000      1.00000000      1.00000000      1.00000000      1.00000000      1.00000000
      1.00000000      1.00000000      1.00000000      1.00000000      1.00000000      1.00000000      1.00000000      1.00000000      1.00000000      1.00000000      1.00000000      1.00000000      1.00000000      1.00000000      1.00000000      1.00000000      1.00000000      1.00000000      1.00000000      1.00000000
      1.00000000      1.00000000      1.00000000      1.00000000      1.00000000      1.00000000      1.00000000      1.00000000      1.00000000      1.00000000      1.00000000      1.00000000      1.00000000      1.00000000      1.00000000      1.00000000      1.00000000      1.00000000      1.00000000      1.00000000
      1.00000000      1.00000000      1.00000000      1.00000000      1.00000000</v>
    <i name="NUPDOWN">     -1.00000000</i>
    <i type="logical" name="LSORBIT"> F  </i>
    <v name="SAXIS">      0.00000000      0.00000000      1.00000000</v>
    <i type="logical" name="LSPIRAL"> F  </i>
    <v name="QSPIRAL">      0.00000000      0.00000000      0.00000000</v>
    <i type="logical" name="LZEROZ"> F  </i>
   </separator>
   <separator name="electronic exchange-correlation" >
    <i type="logical" name="LASPH"> F  </i>
    <i type="logical" name="LMETAGGA"> F  </i>
   </separator>
   <separator name="electronic convergence" >
    <i type="int" name="NELM">   100</i>
    <i type="int" name="NELMDL">   -12</i>
    <i type="int" name="NELMIN">     2</i>
    <i name="ENINI">    500.00000000</i>
    <separator name="electronic convergence detail" >
     <i type="logical" name="LDIAG"> T  </i>
     <i type="logical" name="LSUBROT"> F  </i>
     <i name="WEIMIN">      0.00100000</i>
     <i name="EBREAK">      0.00000000</i>
     <i name="DEPER">      0.30000000</i>
     <i type="int" name="NRMM">     4</i>
     <i name="TIME">      0.40000000</i>
    </separator>
   </separator>
   <separator name="electronic mixer" >
    <i name="AMIX">      0.40000000</i>
    <i name="BMIX">      1.00000000</i>
    <i name="AMIN">      0.10000000</i>
    <i name="AMIX_MAG">      1.60000000</i>
    <i name="BMIX_MAG">      1.00000000</i>
    <separator name="electronic mixer details" >
     <i type="int" name="IMIX">     4</i>
     <i type="logical" name="MIXFIRST"> F  </i>
     <i type="int" name="MAXMIX">   -45</i>
     <i name="WC">    100.00000000</i>
     <i type="int" name="INIMIX">     1</i>
     <i type="int" name="MIXPRE">     1</i>
     <i type="int" name="MREMOVE">     5</i>
    </separator>
   </separator>
   <separator name="electronic dipolcorrection" >
    <i type="logical" name="LDIPOL"> F  </i>
    <i type="logical" name="LMONO"> F  </i>
    <i type="int" name="IDIPOL">     0</i>
    <i name="EPSILON">      1.00000000</i>
    <v name="DIPOL">   -100.00000000   -100.00000000   -100.00000000</v>
    <i name="EFIELD">      0.00000000</i>
   </separator>
  </separator>
  <separator name="grids" >
   <i type="int" name="NGX">    56</i>
   <i type="int" name="NGY">    56</i>
   <i type="int" name="NGZ">    70</i>
   <i type="int" name="NGXF">   112</i>
   <i type="int" name="NGYF">   112</i>
   <i type="int" name="NGZF">   140</i>
   <i type="logical" name="ADDGRID"> F  </i>
  </separator>
  <separator name="ionic" >
   <i type="int" name="NSW">     1</i>
   <i type="int" name="IBRION">     2</i>
   <i type="int" name="MDALGO">     0</i>
   <i type="int" name="ISIF">     2</i>
   <i name="PSTRESS">      0.00000000</i>
   <i name="EDIFFG">     -0.01000000</i>
   <i type="int" name="NFREE">     1</i>
   <i name="POTIM">      0.50000000</i>
   <i name="SMASS">     -3.00000000</i>
   <i name="SCALEE">      1.00000000</i>
  </separator>
  <separator name="ionic md" >
   <i name="TEBEG">      0.00010000</i>
   <i name="TEEND">      0.00010000</i>
   <i type="int" name="NBLOCK">     1</i>
   <i type="int" name="KBLOCK">     1</i>
   <i type="int" name="NPACO">   256</i>
   <i name="APACO">     16.00000000</i>
  </separator>
  <separator name="symmetry" >
   <i type="int" name="ISYM">     0</i>
   <i name="SYMPREC">      0.00001000</i>
  </separator>
  <separator name="dos" >
   <i type="int" name="LORBIT">    11</i>
   <v name="RWIGS">     -1.00000000     -1.00000000     -1.00000000     -1.00000000</v>
   <i type="int" name="NEDOS">   301</i>
   <i name="EMIN">     10.00000000</i>
   <i name="EMAX">    -10.00000000</i>
   <i name="EFERMI">      0.00000000</i>
  </separator>
  <separator name="writing" >
   <i type="int" name="NWRITE">     2</i>
   <i type="logical" name="LWAVE"> F  </i>
   <i type="logical" name="LDOWNSAMPLE"> F  </i>
   <i type="logical" name="LCHARG"> F  </i>
   <i type="logical" name="LPARD"> F  </i>
   <i type="logical" name="LVTOT"> F  </i>
   <i type="logical" name="LVHAR"> F  </i>
   <i type="logical" name="LELF"> F  </i>
   <i type="logical" name="LOPTICS"> F  </i>
   <v name="STM">      0.00000000      0.00000000      0.00000000      0.00000000      0.00000000      0.00000000      0.00000000</v>
  </separator>
  <separator name="performance" >
   <i type="int" name="NPAR">     8</i>
   <i type="int" name="NSIM">     4</i>
   <i type="int" name="NBLK">    -1</i>
   <i type="logical" name="LPLANE"> T  </i>
   <i type="logical" name="LSCALAPACK"> T  </i>
   <i type="logical" name="LSCAAWARE"> F  </i>
   <i type="logical" name="LSCALU"> F  </i>
   <i type="logical" name="LASYNC"> F  </i>
   <i type="logical" name="LORBITALREAL"> F  </i>
  </separator>
  <separator name="miscellaneous" >
   <i type="int" name="IDIOT">     3</i>
   <i type="int" name="ISPECIAL">     0</i>
   <i type="logical" name="LMUSIC"> F  </i>
   <v name="POMASS">      7.01000000     30.97400000     32.06600000     35.45300000</v>
   <v name="DARWINR">      0.00000000      0.00000000      0.00000000      0.00000000</v>
   <v name="DARWINV">      1.00000000      1.00000000      1.00000000      1.00000000</v>
   <i type="logical" name="LCORR"> T  </i>
  </separator>
  <i type="logical" name="GGA_COMPAT"> T  </i>
  <i type="logical" name="LBERRY"> F  </i>
  <i type="int" name="ICORELEVEL">     0</i>
  <i type="logical" name="LDAU"> F  </i>
  <i type="int" name="I_CONSTRAINED_M">     0</i>
  <separator name="electronic exchange-correlation" >
   <i type="string" name="GGA">--</i>
   <i type="int" name="VOSKOWN">     0</i>
   <i type="logical" name="LHFCALC"> F  </i>
   <i type="string" name="PRECFOCK"></i>
   <i type="logical" name="LSYMGRAD"> F  </i>
   <i type="logical" name="LHFONE"> F  </i>
   <i type="logical" name="LRHFCALC"> F  </i>
   <i type="logical" name="LTHOMAS"> F  </i>
   <i type="logical" name="LMODELHF"> F  </i>
   <i name="ENCUT4O">     -1.00000000</i>
   <i type="int" name="EXXOEP">     0</i>
   <i type="int" name="FOURORBIT">     0</i>
   <i name="AEXX">      0.00000000</i>
   <i name="HFALPHA">      0.00000000</i>
   <i name="MCALPHA">      0.00000000</i>
   <i name="ALDAX">      1.00000000</i>
   <i name="AGGAX">      1.00000000</i>
   <i name="ALDAC">      1.00000000</i>
   <i name="AGGAC">      1.00000000</i>
   <i type="int" name="NKREDX">     1</i>
   <i type="int" name="NKREDY">     1</i>
   <i type="int" name="NKREDZ">     1</i>
   <i type="logical" name="SHIFTRED"> F  </i>
   <i type="logical" name="ODDONLY"> F  </i>
   <i type="logical" name="EVENONLY"> F  </i>
   <i type="int" name="LMAXFOCK">     0</i>
   <i type="int" name="NMAXFOCKAE">     0</i>
   <i type="logical" name="LFOCKAEDFT"> F  </i>
   <i name="HFSCREEN">      0.00000000</i>
   <i name="HFSCREENC">      0.00000000</i>
   <i type="int" name="NBANDSGWLOW">     0</i>
  </separator>
  <separator name="vdW DFT" >
   <i type="logical" name="LUSE_VDW"> F  </i>
   <i name="Zab_VDW">     -0.84910000</i>
   <i name="PARAM1">      0.12340000</i>
   <i name="PARAM2">      1.00000000</i>
   <i name="PARAM3">      0.00000000</i>
  </separator>
  <separator name="model GW" >
   <i type="int" name="MODEL_GW">     0</i>
   <i name="MODEL_EPS0">     11.97712500</i>
   <i name="MODEL_ALPHA">      1.00000000</i>
  </separator>
  <separator name="linear response parameters" >
   <i type="logical" name="LEPSILON"> F  </i>
   <i type="logical" name="LRPA"> F  </i>
   <i type="logical" name="LNABLA"> F  </i>
   <i type="logical" name="LVEL"> F  </i>
   <i type="int" name="KINTER">     0</i>
   <i name="CSHIFT">      0.10000000</i>
   <i name="OMEGAMAX">     -1.00000000</i>
   <i name="DEG_THRESHOLD">      0.00200000</i>
   <i name="RTIME">     -0.10000000</i>
   <i name="WPLASMAI">      0.00000000</i>
   <v name="DFIELD">      0.00000000      0.00000000      0.00000000</v>
   <v name="WPLASMA">      0.00000000      0.00000000      0.00000000      0.00000000      0.00000000      0.00000000      0.00000000      0.00000000      0.00000000</v>
  </separator>
  <separator name="orbital magnetization" >
   <i type="logical" name="NUCIND"> F  </i>
   <v name="MAGPOS">      0.00000000      0.00000000      0.00000000</v>
   <i type="logical" name="LNICSALL"> T  </i>
   <i type="logical" name="ORBITALMAG"> F  </i>
   <i type="logical" name="LMAGBLOCH"> F  </i>
   <i type="logical" name="LCHIMAG"> F  </i>
   <i type="logical" name="LGAUGE"> T  </i>
   <i type="int" name="MAGATOM">     0</i>
   <v name="MAGDIPOL">      0.00000000      0.00000000      0.00000000</v>
   <v name="AVECCONST">      0.00000000      0.00000000      0.00000000</v>
  </separator>
  <separator name="response functions" >
   <i type="logical" name="LADDER"> F  </i>
   <i type="logical" name="LRPAFORCE"> F  </i>
   <i type="logical" name="LFXC"> F  </i>
   <i type="logical" name="LHARTREE"> T  </i>
   <i type="int" name="IBSE">     0</i>
   <v type="int" name="KPOINT">    -1     0     0     0</v>
   <i type="logical" name="LTCTE"> F  </i>
   <i type="logical" name="LTETE"> F  </i>
   <i type="logical" name="LTRIPLET"> F  </i>
   <i type="logical" name="LFXCEPS"> F  </i>
   <i type="logical" name="LFXHEG"> F  </i>
   <i type="int" name="NATURALO">     2</i>
   <i type="logical" name="L2ORDER"> F  </i>
   <i type="logical" name="LMP2LT"> F  </i>
   <i type="logical" name="LUSEW"> F  </i>
   <i name="ENCUTGW">     -2.00000000</i>
   <i name="ENCUTGWSOFT">     -2.00000000</i>
   <i name="ENCUTLF">     -1.00000000</i>
   <i type="int" name="LMAXMP2">    -1</i>
   <i name="SCISSOR">      0.00000000</i>
   <i type="int" name="NOMEGA">     0</i>
   <i type="int" name="NOMEGAR">     0</i>
   <i type="int" name="NBANDSGW">    -1</i>
   <i type="int" name="NBANDSO">    -1</i>
   <i type="int" name="NBANDSV">    -1</i>
   <i type="int" name="NELM">   100</i>
   <i type="int" name="NELMHF">     1</i>
   <i type="int" name="DIM">     3</i>
   <i type="int" name="ANTIRES">     0</i>
   <i name="OMEGAMAX">    -30.00000000</i>
   <i name="OMEGAMIN">    -30.00000000</i>
   <i name="OMEGATL">   -200.00000000</i>
   <i type="int" name="OMEGAGRID">   140</i>
   <i name="CSHIFT">     -0.10000000</i>
   <i type="logical" name="SELFENERGY"> F  </i>
   <i type="logical" name="LSPECTRAL"> F  </i>
   <i type="logical" name="LSPECTRALGW"> F  </i>
   <i type="logical" name="LSINGLES"> F  </i>
   <i type="logical" name="LFERMIGW"> F  </i>
   <i type="logical" name="ODDONLYGW"> F  </i>
   <i type="logical" name="EVENONLYGW"> F  </i>
   <i type="int" name="NKREDLFX">     1</i>
   <i type="int" name="NKREDLFY">     1</i>
   <i type="int" name="NKREDLFZ">     1</i>
   <i type="int" name="MAXMEM">  2800</i>
   <i type="int" name="TELESCOPE">     0</i>
   <i type="int" name="TAUPAR">     1</i>
   <i type="int" name="OMEGAPAR">    -1</i>
   <i name="LAMBDA">      1.00000000</i>
  </separator>
  <separator name="External order field" >
   <i name="OFIELD_KAPPA">      0.00000000</i>
   <v name="OFIELD_K">      0.00000000      0.00000000      0.00000000</v>
   <i name="OFIELD_Q6_NEAR">      0.00000000</i>
   <i name="OFIELD_Q6_FAR">      0.00000000</i>
   <i name="OFIELD_A">      0.00000000</i>
  </separator>
 </parameters>
 <atominfo>
  <atoms>      65 </atoms>
  <types>       4 </types>
  <array name="atoms" >
   <dimension dim="1">ion</dimension>
   <field type="string">element</field>
   <field type="int">atomtype</field>
   <set>
    <rc><c>Li</c><c>   1</c></rc>
    <rc><c>Li</c><c>   1</c></rc>
    <rc><c>Li</c><c>   1</c></rc>
    <rc><c>Li</c><c>   1</c></rc>
    <rc><c>Li</c><c>   1</c></rc>
    <rc><c>Li</c><c>   1</c></rc>
    <rc><c>Li</c><c>   1</c></rc>
    <rc><c>Li</c><c>   1</c></rc>
    <rc><c>Li</c><c>   1</c></rc>
    <rc><c>Li</c><c>   1</c></rc>
    <rc><c>Li</c><c>   1</c></rc>
    <rc><c>Li</c><c>   1</c></rc>
    <rc><c>Li</c><c>   1</c></rc>
    <rc><c>Li</c><c>   1</c></rc>
    <rc><c>Li</c><c>   1</c></rc>
    <rc><c>Li</c><c>   1</c></rc>
    <rc><c>Li</c><c>   1</c></rc>
    <rc><c>Li</c><c>   1</c></rc>
    <rc><c>Li</c><c>   1</c></rc>
    <rc><c>Li</c><c>   1</c></rc>
    <rc><c>Li</c><c>   1</c></rc>
    <rc><c>Li</c><c>   1</c></rc>
    <rc><c>Li</c><c>   1</c></rc>
    <rc><c>Li</c><c>   1</c></rc>
    <rc><c>Li</c><c>   1</c></rc>
    <rc><c>Li</c><c>   1</c></rc>
    <rc><c>Li</c><c>   1</c></rc>
    <rc><c>Li</c><c>   1</c></rc>
    <rc><c>Li</c><c>   1</c></rc>
    <rc><c>Li</c><c>   1</c></rc>
    <rc><c>P </c><c>   2</c></rc>
    <rc><c>P </c><c>   2</c></rc>
    <rc><c>P </c><c>   2</c></rc>
    <rc><c>P </c><c>   2</c></rc>
    <rc><c>P </c><c>   2</c></rc>
    <rc><c>S </c><c>   3</c></rc>
    <rc><c>S </c><c>   3</c></rc>
    <rc><c>S </c><c>   3</c></rc>
    <rc><c>S </c><c>   3</c></rc>
    <rc><c>S </c><c>   3</c></rc>
    <rc><c>S </c><c>   3</c></rc>
    <rc><c>S </c><c>   3</c></rc>
    <rc><c>S </c><c>   3</c></rc>
    <rc><c>S </c><c>   3</c></rc>
    <rc><c>S </c><c>   3</c></rc>
    <rc><c>S </c><c>   3</c></rc>
    <rc><c>S </c><c>   3</c></rc>
    <rc><c>S </c><c>   3</c></rc>
    <rc><c>S </c><c>   3</c></rc>
    <rc><c>S </c><c>   3</c></rc>
    <rc><c>S </c><c>   3</c></rc>
    <rc><c>S </c><c>   3</c></rc>
    <rc><c>S </c><c>   3</c></rc>
    <rc><c>S </c><c>   3</c></rc>
    <rc><c>S </c><c>   3</c></rc>
    <rc><c>S </c><c>   3</c></rc>
    <rc><c>S </c><c>   3</c></rc>
    <rc><c>S </c><c>   3</c></rc>
    <rc><c>S </c><c>   3</c></rc>
    <rc><c>S </c><c>   3</c></rc>
    <rc><c>Cl</c><c>   4</c></rc>
    <rc><c>Cl</c><c>   4</c></rc>
    <rc><c>Cl</c><c>   4</c></rc>
    <rc><c>Cl</c><c>   4</c></rc>
    <rc><c>Cl</c><c>   4</c></rc>
   </set>
  </array>
  <array name="atomtypes" >
   <dimension dim="1">type</dimension>
   <field type="int">atomspertype</field>
   <field type="string">element</field>
   <field>mass</field>
   <field>valence</field>
   <field type="string">pseudopotential</field>
   <set>
    <rc><c>  30</c><c>Li</c><c>      7.01000000</c><c>      3.00000000</c><c>  PAW_PBE Li_sv 10Sep2004               </c></rc>
    <rc><c>   5</c><c>P </c><c>     30.97400000</c><c>      5.00000000</c><c>  PAW_PBE P 06Sep2000                   </c></rc>
    <rc><c>  25</c><c>S </c><c>     32.06600000</c><c>      6.00000000</c><c>  PAW_PBE S 06Sep2000                   </c></rc>
    <rc><c>   5</c><c>Cl</c><c>     35.45300000</c><c>      7.00000000</c><c>  PAW_PBE Cl 06Sep2000                  </c></rc>
   </set>
  </array>
 </atominfo>
 <structure name="initialpos" >
  <crystal>
   <varray name="basis" >
    <v>      10.25000000       0.00000000       0.00000000 </v>
    <v>       0.00000000      10.25000000       0.00000000 </v>
    <v>       0.00000000       0.00000000      12.35000000 </v>
   </varray>
   <i name="volume">   1297.52187500 </i>
   <varray name="rec_basis" >
    <v>       0.09756098       0.00000000       0.00000000 </v>
    <v>       0.00000000       0.09756098       0.00000000 </v>
    <v>       0.00000000       0.00000000       0.08097166 </v>
   </varray>
  </crystal>
  <varray name="positions" >
   <v>       0.62240878       0.90422732       0.99194332 </v>
   <v>       0.73139610       0.56917561       0.61374332 </v>
   <v>       0.23429366       0.17288585       0.03431555 </v>
   <v>       0.15150634       0.68460585       0.18914089 </v>
   <v>       0.25241951       0.18204976       0.31944858 </v>
   <v>       0.20478341       0.06034946       0.65460000 </v>
   <v>       0.75711805       0.56408683       0.22061134 </v>
   <v>       0.50876976       0.07386166       0.30938947 </v>
   <v>       0.98352195       0.92945073       0.59363563 </v>
   <v>       0.92445268       0.36304195       0.23593279 </v>
   <v>       0.43658537       0.98233171       0.53554980 </v>
   <v>       0.88622634       0.58717171       0.02683830 </v>
   <v>       0.03031229       0.35795805       0.73172470 </v>
   <v>       0.31102634       0.52277268       0.58922348 </v>
   <v>       0.59384488       0.24753951       0.99923887 </v>
   <v>       0.83609463       0.20719220       0.82531984 </v>
   <v>       0.62145951       0.53283707       0.98332794 </v>
   <v>       0.46143220       0.40170829       0.44096113 </v>
   <v>       0.47935024       0.65728293       0.15217328 </v>
   <v>       0.22682439       0.73935512       0.86788664 </v>
   <v>       0.66845463       0.26764780       0.22256680 </v>
   <v>       0.96368000       0.69368878       0.72577571 </v>
   <v>       0.01073463       0.35574634       0.45530364 </v>
   <v>       0.91163610       0.21614439       0.03738826 </v>
   <v>       0.69993073       0.11759610       0.44795142 </v>
   <v>       0.55582439       0.64059805       0.77644777 </v>
   <v>       0.64334732       0.87223024       0.24271255 </v>
   <v>       0.67607317       0.05244146       0.77086235 </v>
   <v>       0.60319122       0.25866341       0.62666559 </v>
   <v>       0.92853171       0.89525951       0.01231296 </v>
   <v>       0.30617951       0.61344976       0.33918785 </v>
   <v>       0.27504390       0.47785561       0.88686640 </v>
   <v>       0.09179883       0.42254049       0.98580567 </v>
   <v>       0.19393366       0.70808976       0.48315466 </v>
   <v>       0.97318146       0.62398634       0.46072955 </v>
   <v>       0.37352098       0.10917366       0.80326316 </v>
   <v>       0.38249951       0.89370634       0.22786640 </v>
   <v>       0.44924878       0.92357756       0.82325506 </v>
   <v>       0.20104976       0.91185366       0.49796680 </v>
   <v>       0.83500195       0.74300683       0.54151255 </v>
   <v>       0.03116341       0.18760293       0.58353036 </v>
   <v>       0.51209463       0.61302927       0.33564049 </v>
   <v>       0.39374927       0.62914634       0.95669636 </v>
   <v>       0.19796000       0.37498439       0.13787935 </v>
   <v>       0.18184585       0.56135610       0.74143806 </v>
   <v>       0.75554049       0.37412976       0.07190016 </v>
   <v>       0.77069463       0.55672683       0.82529555 </v>
   <v>       0.07090820       0.25172488       0.89591903 </v>
   <v>       0.95536195       0.63843024       0.28925506 </v>
   <v>       0.06453688       0.22133073       0.18082348 </v>
   <v>       0.77972000       0.06395824       0.96731174 </v>
   <v>       0.83611805       0.10799610       0.59885749 </v>
   <v>       0.46452488       0.19585366       0.46420405 </v>
   <v>       0.70604878       0.71509756       0.08858300 </v>
   <v>       0.79099610       0.39078732       0.72130607 </v>
   <v>       0.43647024       0.18071902       0.15088421 </v>
   <v>       0.53445171       0.24014244       0.81294737 </v>
   <v>       0.57277463       0.85828000       0.70228421 </v>
   <v>       0.41458049       0.99563902       0.07566251 </v>
   <v>       0.22949268       0.44204000       0.41257652 </v>
   <v>       0.52421366       0.48344585       0.60548097 </v>
   <v>       0.79958244       0.32277854       0.37584049 </v>
   <v>       0.10521171       0.88937171       0.74957004 </v>
   <v>       0.75370049       0.04442195       0.29153117 </v>
   <v>       0.08345463       0.73594049       0.02309628 </v>
  </varray>
 </structure>
 <calculation>
  <scstep>
   <time name="diag">    0.24    0.26</time>
   <time name="diis">    0.34    0.34</time>
   <time name="orth">    0.02    0.02</time>
   <time name="total">    0.72    0.76</time>
   <energy>
    <i name="alphaZ">    256.70245505 </i>
    <i name="ewald">  -9896.05902617 </i>
    <i name="hartreedc">  -3376.59141312 </i>
    <i name="XCdc">    791.19645610 </i>
    <i name="pawpsdc">  10155.13001117 </i>
    <i name="pawaedc"> -10497.29644279 </i>
    <i name="eentropy">     -0.00000002 </i>
    <i name="bandstr">  -4530.94167302 </i>
    <i name="atom">  15932.49537490 </i>
    <i name="e_fr_energy">  -1165.36425790 </i>
    <i name="e_wo_entrp">  -1165.36425788 </i>
    <i name="e_0_energy">  -1165.36425789 </i>
   </energy>
  </scstep>
  <scstep>
   <time name="diag">    0.19    0.19</time>
   <time name="diis">    0.32    0.32</time>
   <time name="orth">    0.02    0.02</time>
   <time name="total">    0.53    0.53</time>
   <energy>
    <i name="e_fr_energy">    738.82216236 </i>
    <i name="e_wo_entrp">    738.82216236 </i>
    <i name="e_0_energy">    738.82216236 </i>
   </energy>
  </scstep>
  <scstep>
   <time name="diag">    0.19    0.19</time>
   <time name="diis">    0.32    0.32</time>
   <time name="orth">    0.02    0.02</time>
   <time name="total">    0.53    0.53</time>
   <energy>
    <i name="e_fr_energy">    242.44305326 </i>
    <i name="e_wo_entrp">    242.44743707 </i>
    <i name="e_0_energy">    242.44524517 </i>
   </energy>
  </scstep>
  <scstep>
   <time name="diag">    0.18    0.18</time>
   <time name="diis">    0.32    0.32</time>
   <time name="orth">    0.02    0.02</time>
   <time name="total">    0.53    0.53</time>
   <energy>
    <i name="e_fr_energy">    -13.84287255 </i>
    <i name="e_wo_entrp">    -13.81747122 </i>
    <i name="e_0_energy">    -13.83017189 </i>
   </energy>
  </scstep>
  <scstep>
   <time name="diag">    0.18    0.18</time>
   <time name="diis">    0.32    0.32</time>
   <time name="orth">    0.02    0.02</time>
   <time name="total">    0.53    0.53</time>
   <energy>
    <i name="e_fr_energy">   -125.43062008 </i>
    <i name="e_wo_entrp">   -125.43062008 </i>
    <i name="e_0_energy">   -125.43062008 </i>
   </energy>
  </scstep>
  <scstep>
   <time name="diag">    0.18    0.18</time>
   <time name="diis">    0.32    0.32</time>
   <time name="orth">    0.02    0.02</time>
   <time name="total">    0.52    0.52</time>
   <energy>
    <i name="e_fr_energy">   -171.73405620 </i>
    <i name="e_wo_entrp">   -171.73405620 </i>
    <i name="e_0_energy">   -171.73405620 </i>
   </energy>
  </scstep>
  <scstep>
   <time name="diag">    0.18    0.18</time>
   <time name="diis">    0.32    0.32</time>
   <time name="orth">    0.02    0.02</time>
   <time name="total">    0.52    0.52</time>
   <energy>
    <i name="e_fr_energy">   -194.03879485 </i>
    <i name="e_wo_entrp">   -194.03879485 </i>
    <i name="e_0_energy">   -194.03879485 </i>
   </energy>
  </scstep>
  <scstep>
   <time name="diag">    0.18    0.18</time>
   <time name="diis">    0.38    0.38</time>
   <time name="orth">    0.02    0.02</time>
   <time name="total">    0.59    0.59</time>
   <energy>
    <i name="e_fr_energy">   -207.04385645 </i>
    <i name="e_wo_entrp">   -207.04385645 </i>
    <i name="e_0_energy">   -207.04385645 </i>
   </energy>
  </scstep>
  <scstep>
   <time name="diag">    0.21    0.21</time>
   <time name="diis">    1.40    1.40</time>
   <time name="orth">    0.03    0.03</time>
   <time name="total">    1.64    1.64</time>
   <energy>
    <i name="e_fr_energy">   -241.70824540 </i>
    <i name="e_wo_entrp">   -241.70824540 </i>
    <i name="e_0_energy">   -241.70824540 </i>
   </energy>
  </scstep>
  <scstep>
   <time name="diag">    0.19    0.19</time>
   <time name="diis">    1.14    1.14</time>
   <time name="orth">    0.03    0.03</time>
   <time name="total">    1.36    1.36</time>
   <energy>
    <i name="e_fr_energy">   -259.61228951 </i>
    <i name="e_wo_entrp">   -259.61228951 </i>
    <i name="e_0_energy">   -259.61228951 </i>
   </energy>
  </scstep>
  <scstep>
   <time name="diag">    0.19    0.19</time>
   <time name="diis">    1.09    1.09</time>
   <time name="orth">    0.03    0.03</time>
   <time name="total">    1.31    1.31</time>
   <energy>
    <i name="e_fr_energy">   -263.37068854 </i>
    <i name="e_wo_entrp">   -263.37068854 </i>
    <i name="e_0_energy">   -263.37068854 </i>
   </energy>
  </scstep>
  <scstep>
   <time name="diag">    0.19    0.19</time>
   <time name="diis">    1.08    1.08</time>
   <time name="orth">    0.03    0.03</time>
   <time name="total">    1.35    1.35</time>
   <energy>
    <i name="e_fr_energy">   -265.54846862 </i>
    <i name="e_wo_entrp">   -265.54846862 </i>
    <i name="e_0_energy">   -265.54846862 </i>
   </energy>
  </scstep>
  <scstep>
   <time name="diag">    0.18    0.18</time>
   <time name="diis">    0.83    0.83</time>
   <time name="orth">    0.03    0.03</time>
   <time name="total">    1.17    1.17</time>
   <energy>
    <i name="e_fr_energy">   -256.09361163 </i>
    <i name="e_wo_entrp">   -256.09361163 </i>
    <i name="e_0_energy">   -256.09361163 </i>
   </energy>
  </scstep>
  <scstep>
   <time name="diag">    0.18    0.18</time>
   <time name="diis">    0.88    0.88</time>
   <time name="orth">    0.03    0.03</time>
   <time name="total">    1.22    1.22</time>
   <energy>
    <i name="e_fr_energy">   -254.97890845 </i>
    <i name="e_wo_entrp">   -254.97890845 </i>
    <i name="e_0_energy">   -254.97890845 </i>
   </energy>
  </scstep>
  <scstep>
   <time name="diag">    0.18    0.18</time>
   <time name="diis">    1.01    1.01</time>
   <time name="orth">    0.03    0.03</time>
   <time name="total">    1.35    1.35</time>
   <energy>
    <i name="e_fr_energy">   -255.09368337 </i>
    <i name="e_wo_entrp">   -255.09368337 </i>
    <i name="e_0_energy">   -255.09368337 </i>
   </energy>
  </scstep>
  <scstep>
   <time name="diag">    0.18    0.18</time>
   <time name="diis">    1.18    1.18</time>
   <time name="orth">    0.03    0.03</time>
   <time name="total">    1.53    1.53</time>
   <energy>
    <i name="e_fr_energy">   -255.18977782 </i>
    <i name="e_wo_entrp">   -255.18977782 </i>
    <i name="e_0_energy">   -255.18977782 </i>
   </energy>
  </scstep>
  <scstep>
   <time name="diag">    0.20    0.20</time>
   <time name="diis">    1.04    1.04</time>
   <time name="orth">    0.03    0.03</time>
   <time name="total">    1.41    1.41</time>
   <energy>
    <i name="e_fr_energy">   -255.27573148 </i>
    <i name="e_wo_entrp">   -255.27573148 </i>
    <i name="e_0_energy">   -255.27573148 </i>
   </energy>
  </scstep>
  <scstep>
   <time name="diag">    0.18    0.18</time>
   <time name="diis">    1.04    1.04</time>
   <time name="orth">    0.03    0.03</time>
   <time name="total">    1.38    1.38</time>
   <energy>
    <i name="e_fr_energy">   -255.33567613 </i>
    <i name="e_wo_entrp">   -255.33567613 </i>
    <i name="e_0_energy">   -255.33567613 </i>
   </energy>
  </scstep>
  <scstep>
   <time name="diag">    0.18    0.18</time>
   <time name="diis">    1.04    1.04</time>
   <time name="orth">    0.03    0.03</time>
   <time name="total">    1.38    1.38</time>
   <energy>
    <i name="e_fr_energy">   -255.37651463 </i>
    <i name="e_wo_entrp">   -255.37651463 </i>
    <i name="e_0_energy">   -255.37651463 </i>
   </energy>
  </scstep>
  <scstep>
   <time name="diag">    0.18    0.18</time>
   <time name="diis">    1.08    1.08</time>
   <time name="orth">    0.03    0.03</time>
   <time name="total">    1.42    1.42</time>
   <energy>
    <i name="e_fr_energy">   -255.39616973 </i>
    <i name="e_wo_entrp">   -255.39616973 </i>
    <i name="e_0_energy">   -255.39616973 </i>
   </energy>
  </scstep>
  <scstep>
   <time name="diag">    0.18    0.18</time>
   <time name="diis">    1.04    1.04</time>
   <time name="orth">    0.03    0.03</time>
   <time name="total">    1.38    1.38</time>
   <energy>
    <i name="e_fr_energy">   -255.41102073 </i>
    <i name="e_wo_entrp">   -255.41102073 </i>
    <i name="e_0_energy">   -255.41102073 </i>
   </energy>
  </scstep>
  <scstep>
   <time name="diag">    0.18    0.18</time>
   <time name="diis">    1.03    1.03</time>
   <time name="orth">    0.03    0.03</time>
   <time name="total">    1.37    1.37</time>
   <energy>
    <i name="e_fr_energy">   -255.41933573 </i>
    <i name="e_wo_entrp">   -255.41933573 </i>
    <i name="e_0_energy">   -255.41933573 </i>
   </energy>
  </scstep>
  <scstep>
   <time name="diag">    0.18    0.18</time>
   <time name="diis">    1.13    1.13</time>
   <time name="orth">    0.03    0.03</time>
   <time name="total">    1.49    1.48</time>
   <energy>
    <i name="e_fr_energy">   -255.42558589 </i>
    <i name="e_wo_entrp">   -255.42558589 </i>
    <i name="e_0_energy">   -255.42558589 </i>
   </energy>
  </scstep>
  <scstep>
   <time name="diag">    0.20    0.20</time>
   <time name="diis">    1.10    1.10</time>
   <time name="orth">    0.03    0.03</time>
   <time name="total">    1.46    1.46</time>
   <energy>
    <i name="e_fr_energy">   -255.42942183 </i>
    <i name="e_wo_entrp">   -255.42942183 </i>
    <i name="e_0_energy">   -255.42942183 </i>
   </energy>
  </scstep>
  <scstep>
   <time name="diag">    0.18    0.18</time>
   <time name="diis">    1.07    1.07</time>
   <time name="orth">    0.03    0.03</time>
   <time name="total">    1.41    1.40</time>
   <energy>
    <i name="e_fr_energy">   -255.43176233 </i>
    <i name="e_wo_entrp">   -255.43176233 </i>
    <i name="e_0_energy">   -255.43176233 </i>
   </energy>
  </scstep>
  <scstep>
   <time name="diag">    0.18    0.18</time>
   <time name="diis">    1.03    1.03</time>
   <time name="orth">    0.03    0.03</time>
   <time name="total">    1.36    1.36</time>
   <energy>
    <i name="e_fr_energy">   -255.43335443 </i>
    <i name="e_wo_entrp">   -255.43335443 </i>
    <i name="e_0_energy">   -255.43335443 </i>
   </energy>
  </scstep>
  <scstep>
   <time name="diag">    0.18    0.18</time>
   <time name="diis">    1.05    1.05</time>
   <time name="orth">    0.03    0.03</time>
   <time name="total">    1.39    1.39</time>
   <energy>
    <i name="e_fr_energy">   -255.43456192 </i>
    <i name="e_wo_entrp">   -255.43456192 </i>
    <i name="e_0_energy">   -255.43456192 </i>
   </energy>
  </scstep>
  <scstep>
   <time name="diag">    0.18    0.18</time>
   <time name="diis">    1.07    1.06</time>
   <time name="orth">    0.03    0.03</time>
   <time name="total">    1.40    1.40</time>
   <energy>
    <i name="e_fr_energy">   -255.43561477 </i>
    <i name="e_wo_entrp">   -255.43561477 </i>
    <i name="e_0_energy">   -255.43561477 </i>
   </energy>
  </scstep>
  <scstep>
   <time name="diag">    0.18    0.18</time>
   <time name="diis">    1.08    1.08</time>
   <time name="orth">    0.03    0.03</time>
   <time name="total">    1.42    1.41</time>
   <energy>
    <i name="e_fr_energy">   -255.43616494 </i>
    <i name="e_wo_entrp">   -255.43616494 </i>
    <i name="e_0_energy">   -255.43616494 </i>
   </energy>
  </scstep>
  <scstep>
   <time name="diag">    0.18    0.18</time>
   <time name="diis">    1.24    1.24</time>
   <time name="orth">    0.03    0.03</time>
   <time name="total">    1.59    1.59</time>
   <energy>
    <i name="e_fr_energy">   -255.43662853 </i>
    <i name="e_wo_entrp">   -255.43662853 </i>
    <i name="e_0_energy">   -255.43662853 </i>
   </energy>
  </scstep>
  <scstep>
   <time name="diag">    0.20    0.20</time>
   <time name="diis">    1.17    1.17</time>
   <time name="orth">    0.03    0.03</time>
   <time name="total">    1.56    1.56</time>
   <energy>
    <i name="e_fr_energy">   -255.43691955 </i>
    <i name="e_wo_entrp">   -255.43691955 </i>
    <i name="e_0_energy">   -255.43691955 </i>
   </energy>
  </scstep>
  <scstep>
   <time name="diag">    0.21    0.21</time>
   <time name="diis">    1.08    1.08</time>
   <time name="orth">    0.03    0.03</time>
   <time name="total">    1.47    1.47</time>
   <energy>
    <i name="e_fr_energy">   -255.43712971 </i>
    <i name="e_wo_entrp">   -255.43712971 </i>
    <i name="e_0_energy">   -255.43712971 </i>
   </energy>
  </scstep>
  <scstep>
   <time name="diag">    0.20    0.20</time>
   <time name="diis">    1.05    1.05</time>
   <time name="orth">    0.03    0.03</time>
   <time name="total">    1.41    1.41</time>
   <energy>
    <i name="e_fr_energy">   -255.43729305 </i>
    <i name="e_wo_entrp">   -255.43729305 </i>
    <i name="e_0_energy">   -255.43729305 </i>
   </energy>
  </scstep>
  <scstep>
   <time name="diag">    0.18    0.18</time>
   <time name="diis">    0.99    0.99</time>
   <time name="orth">    0.03    0.03</time>
   <time name="total">    1.33    1.33</time>
   <energy>
    <i name="e_fr_energy">   -255.43735604 </i>
    <i name="e_wo_entrp">   -255.43735604 </i>
    <i name="e_0_energy">   -255.43735604 </i>
   </energy>
  </scstep>
  <scstep>
   <time name="diag">    0.18    0.18</time>
   <time name="diis">    1.03    1.03</time>
   <time name="orth">    0.03    0.03</time>
   <time name="total">    1.37    1.37</time>
   <energy>
    <i name="e_fr_energy">   -255.43737143 </i>
    <i name="e_wo_entrp">   -255.43737143 </i>
    <i name="e_0_energy">   -255.43737143 </i>
   </energy>
  </scstep>
  <scstep>
   <time name="diag">    0.18    0.18</time>
   <time name="diis">    1.02    1.02</time>
   <time name="orth">    0.03    0.03</time>
   <time name="total">    1.36    1.35</time>
   <energy>
    <i name="e_fr_energy">   -255.43740375 </i>
    <i name="e_wo_entrp">   -255.43740375 </i>
    <i name="e_0_energy">   -255.43740375 </i>
   </energy>
  </scstep>
  <scstep>
   <time name="diag">    0.18    0.18</time>
   <time name="diis">    1.07    1.07</time>
   <time name="orth">    0.03    0.03</time>
   <time name="total">    1.42    1.42</time>
   <energy>
    <i name="e_fr_energy">   -255.43738778 </i>
    <i name="e_wo_entrp">   -255.43738778 </i>
    <i name="e_0_energy">   -255.43738778 </i>
   </energy>
  </scstep>
  <scstep>
   <time name="diag">    0.19    0.19</time>
   <time name="diis">    1.03    1.03</time>
   <time name="orth">    0.03    0.03</time>
   <time name="total">    1.39    1.39</time>
   <energy>
    <i name="e_fr_energy">   -255.43737974 </i>
    <i name="e_wo_entrp">   -255.43737974 </i>
    <i name="e_0_energy">   -255.43737974 </i>
   </energy>
  </scstep>
  <scstep>
   <time name="diag">    0.18    0.18</time>
   <time name="diis">    0.97    0.97</time>
   <time name="orth">    0.03    0.03</time>
   <time name="total">    1.31    1.31</time>
   <energy>
    <i name="e_fr_energy">   -255.43741177 </i>
    <i name="e_wo_entrp">   -255.43741177 </i>
    <i name="e_0_energy">   -255.43741177 </i>
   </energy>
  </scstep>
  <scstep>
   <time name="diag">    0.18    0.18</time>
   <time name="diis">    0.96    0.96</time>
   <time name="orth">    0.03    0.03</time>
   <time name="total">    1.31    1.30</time>
   <energy>
    <i name="e_fr_energy">   -255.43744904 </i>
    <i name="e_wo_entrp">   -255.43744904 </i>
    <i name="e_0_energy">   -255.43744904 </i>
   </energy>
  </scstep>
  <scstep>
   <time name="diag">    0.18    0.18</time>
   <time name="diis">    0.94    0.94</time>
   <time name="orth">    0.03    0.03</time>
   <time name="total">    1.29    1.29</time>
   <energy>
    <i name="e_fr_energy">   -255.43746916 </i>
    <i name="e_wo_entrp">   -255.43746916 </i>
    <i name="e_0_energy">   -255.43746916 </i>
   </energy>
  </scstep>
  <scstep>
   <time name="diag">    0.18    0.18</time>
   <time name="diis">    0.89    0.89</time>
   <time name="orth">    0.03    0.03</time>
   <time name="total">    1.23    1.23</time>
   <energy>
    <i name="e_fr_energy">   -255.43748054 </i>
    <i name="e_wo_entrp">   -255.43748054 </i>
    <i name="e_0_energy">   -255.43748054 </i>
   </energy>
  </scstep>
  <scstep>
   <time name="diag">    0.18    0.18</time>
   <time name="diis">    0.82    0.82</time>
   <time name="orth">    0.03    0.03</time>
   <time name="total">    1.16    1.16</time>
   <energy>
    <i name="e_fr_energy">   -255.43749313 </i>
    <i name="e_wo_entrp">   -255.43749313 </i>
    <i name="e_0_energy">   -255.43749313 </i>
   </energy>
  </scstep>
  <scstep>
   <time name="diag">    0.18    0.18</time>
   <time name="diis">    0.75    0.75</time>
   <time name="orth">    0.03    0.03</time>
   <time name="total">    1.10    1.10</time>
   <energy>
    <i name="e_fr_energy">   -255.43749649 </i>
    <i name="e_wo_entrp">   -255.43749649 </i>
    <i name="e_0_energy">   -255.43749649 </i>
   </energy>
  </scstep>
  <scstep>
   <time name="diag">    0.18    0.18</time>
   <time name="diis">    0.81    0.81</time>
   <time name="orth">    0.04    0.04</time>
   <time name="total">    1.17    1.17</time>
   <energy>
    <i name="e_fr_energy">   -255.43750188 </i>
    <i name="e_wo_entrp">   -255.43750188 </i>
    <i name="e_0_energy">   -255.43750188 </i>
   </energy>
  </scstep>
  <scstep>
   <time name="diag">    0.19    0.19</time>
   <time name="diis">    0.76    0.76</time>
   <time name="orth">    0.03    0.03</time>
   <time name="total">    1.13    1.13</time>
   <energy>
    <i name="e_fr_energy">   -255.43750223 </i>
    <i name="e_wo_entrp">   -255.43750223 </i>
    <i name="e_0_energy">   -255.43750223 </i>
   </energy>
  </scstep>
  <scstep>
   <time name="diag">    0.18    0.18</time>
   <time name="diis">    0.68    0.68</time>
   <time name="orth">    0.03    0.03</time>
   <time name="total">    1.03    1.03</time>
   <energy>
    <i name="e_fr_energy">   -255.43750459 </i>
    <i name="e_wo_entrp">   -255.43750459 </i>
    <i name="e_0_energy">   -255.43750459 </i>
   </energy>
  </scstep>
  <scstep>
   <time name="diag">    0.18    0.18</time>
   <time name="diis">    0.70    0.70</time>
   <time name="orth">    0.03    0.03</time>
   <time name="total">    1.05    1.05</time>
   <energy>
    <i name="e_fr_energy">   -255.43750623 </i>
    <i name="e_wo_entrp">   -255.43750623 </i>
    <i name="e_0_energy">   -255.43750623 </i>
   </energy>
  </scstep>
  <scstep>
   <time name="diag">    0.18    0.18</time>
   <time name="diis">    0.64    0.64</time>
   <time name="orth">    0.03    0.03</time>
   <time name="total">    0.99    0.99</time>
   <energy>
    <i name="e_fr_energy">   -255.43750738 </i>
    <i name="e_wo_entrp">   -255.43750738 </i>
    <i name="e_0_energy">   -255.43750738 </i>
   </energy>
  </scstep>
  <scstep>
   <time name="diag">    0.18    0.18</time>
   <time name="diis">    0.66    0.66</time>
   <time name="orth">    0.03    0.03</time>
   <time name="total">    0.96    0.96</time>
   <energy>
    <i name="alphaZ">    256.70245505 </i>
    <i name="ewald">  -9896.05902617 </i>
    <i name="hartreedc">  -3554.91930479 </i>
    <i name="XCdc">    805.06463540 </i>
    <i name="pawpsdc">  22197.11988858 </i>
    <i name="pawaedc"> -22553.19795754 </i>
    <i name="eentropy">     -0.00000000 </i>
    <i name="bandstr">  -3442.64357340 </i>
    <i name="atom">  15932.49537490 </i>
    <i name="e_fr_energy">   -255.43750796 </i>
    <i name="e_wo_entrp">   -255.43750796 </i>
    <i name="e_0_energy">   -255.43750796 </i>
   </energy>
  </scstep>
  <structure>
   <crystal>
    <varray name="basis" >
     <v>      10.25000000       0.00000000       0.00000000 </v>
     <v>       0.00000000      10.25000000       0.00000000 </v>
     <v>       0.00000000       0.00000000      12.35000000 </v>
    </varray>
    <i name="volume">   1297.52187500 </i>
    <varray name="rec_basis" >
     <v>       0.09756098       0.00000000       0.00000000 </v>
     <v>       0.00000000       0.09756098       0.00000000 </v>
     <v>       0.00000000       0.00000000       0.08097166 </v>
    </varray>
   </crystal>
   <varray name="positions" >
    <v>       0.62240878       0.90422732       0.99194332 </v>
    <v>       0.73139610       0.56917561       0.61374332 </v>
    <v>       0.23429366       0.17288585       0.03431555 </v>
    <v>       0.15150634       0.68460585       0.18914089 </v>
    <v>       0.25241951       0.18204976       0.31944858 </v>
    <v>       0.20478341       0.06034946       0.65460000 </v>
    <v>       0.75711805       0.56408683       0.22061134 </v>
    <v>       0.50876976       0.07386166       0.30938947 </v>
    <v>       0.98352195       0.92945073       0.59363563 </v>
    <v>       0.92445268       0.36304195       0.23593279 </v>
    <v>       0.43658537       0.98233171       0.53554980 </v>
    <v>       0.88622634       0.58717171       0.02683830 </v>
    <v>       0.03031229       0.35795805       0.73172470 </v>
    <v>       0.31102634       0.52277268       0.58922348 </v>
    <v>       0.59384488       0.24753951       0.99923887 </v>
    <v>       0.83609463       0.20719220       0.82531984 </v>
    <v>       0.62145951       0.53283707       0.98332794 </v>
    <v>       0.46143220       0.40170829       0.44096113 </v>
    <v>       0.47935024       0.65728293       0.15217328 </v>
    <v>       0.22682439       0.73935512       0.86788664 </v>
    <v>       0.66845463       0.26764780       0.22256680 </v>
    <v>       0.96368000       0.69368878       0.72577571 </v>
    <v>       0.01073463       0.35574634       0.45530364 </v>
    <v>       0.91163610       0.21614439       0.03738826 </v>
    <v>       0.69993073       0.11759610       0.44795142 </v>
    <v>       0.55582439       0.64059805       0.77644777 </v>
    <v>       0.64334732       0.87223024       0.24271255 </v>
    <v>       0.67607317       0.05244146       0.77086235 </v>
    <v>       0.60319122       0.25866341       0.62666559 </v>
    <v>       0.92853171       0.89525951       0.01231296 </v>
    <v>       0.30617951       0.61344976       0.33918785 </v>
    <v>       0.27504390       0.47785561       0.88686640 </v>
    <v>       0.09179883       0.42254049       0.98580567 </v>
    <v>       0.19393366       0.70808976       0.48315466 </v>
    <v>       0.97318146       0.62398634       0.46072955 </v>
    <v>       0.37352098       0.10917366       0.80326316 </v>
    <v>       0.38249951       0.89370634       0.22786640 </v>
    <v>       0.44924878       0.92357756       0.82325506 </v>
    <v>       0.20104976       0.91185366       0.49796680 </v>
    <v>       0.83500195       0.74300683       0.54151255 </v>
    <v>       0.03116341       0.18760293       0.58353036 </v>
    <v>       0.51209463       0.61302927       0.33564049 </v>
    <v>       0.39374927       0.62914634       0.95669636 </v>
    <v>       0.19796000       0.37498439       0.13787935 </v>
    <v>       0.18184585       0.56135610       0.74143806 </v>
    <v>       0.75554049       0.37412976       0.07190016 </v>
    <v>       0.77069463       0.55672683       0.82529555 </v>
    <v>       0.07090820       0.25172488       0.89591903 </v>
    <v>       0.95536195       0.63843024       0.28925506 </v>
    <v>       0.06453688       0.22133073       0.18082348 </v>
    <v>       0.77972000       0.06395824       0.96731174 </v>
    <v>       0.83611805       0.10799610       0.59885749 </v>
    <v>       0.46452488       0.19585366       0.46420405 </v>
    <v>       0.70604878       0.71509756       0.08858300 </v>
    <v>       0.79099610       0.39078732       0.72130607 </v>
    <v>       0.43647024       0.18071902       0.15088421 </v>
    <v>       0.53445171       0.24014244       0.81294737 </v>
    <v>       0.57277463       0.85828000       0.70228421 </v>
    <v>       0.41458049       0.99563902       0.07566251 </v>
    <v>       0.22949268       0.44204000       0.41257652 </v>
    <v>       0.52421366       0.48344585       0.60548097 </v>
    <v>       0.79958244       0.32277854       0.37584049 </v>
    <v>       0.10521171       0.88937171       0.74957004 </v>
    <v>       0.75370049       0.04442195       0.29153117 </v>
    <v>       0.08345463       0.73594049       0.02309628 </v>
   </varray>
  </structure>
  <varray name="forces" >
   <v>       0.20008699      -0.07815445       0.08162253 </v>
   <v>      -0.04236813      -0.31773571       0.01079647 </v>
   <v>       0.05064565      -0.09314669      -0.05165682 </v>
   <v>       0.09429572       0.02353325       0.39782149 </v>
   <v>       0.14609497       0.00404115       0.13948769 </v>
   <v>      -0.11195022      -0.18417749       0.11129374 </v>
   <v>      -0.39262136      -0.11198623      -0.08484691 </v>
   <v>      -0.13200900      -0.02445597      -0.06214260 </v>
   <v>      -0.04754198      -0.03446844      -0.28811305 </v>
   <v>      -0.49153793       0.95885959      -0.26007892 </v>
   <v>      -0.22412270      -0.24810137       0.05782669 </v>
   <v>      -0.09670177      -0.30568218      -0.24765927 </v>
   <v>      -0.00191010       0.27521757      -0.44259256 </v>
   <v>      -0.37270731       0.22253435      -0.02041187 </v>
   <v>       0.28699118      -0.56794063       0.07463392 </v>
   <v>       0.37045055       0.06563669       0.28625496 </v>
   <v>       0.25622172       0.11441172       0.06244301 </v>
   <v>       0.12074703       0.83149790      -0.39684897 </v>
   <v>       0.04038695       0.40880316      -0.14007577 </v>
   <v>      -0.24466765       0.45298477      -0.25081161 </v>
   <v>       0.12774608      -0.25460222      -0.06213281 </v>
   <v>      -0.05058871      -0.08678790       0.08562435 </v>
   <v>      -0.26879480       0.33108301       0.12279997 </v>
   <v>      -0.26863305      -0.01312019      -0.03331787 </v>
   <v>       0.13534000       0.55451945       0.25908109 </v>
   <v>      -0.18887256      -0.20337791       0.06177851 </v>
   <v>      -0.04692701      -0.94647929      -0.50611554 </v>
   <v>       0.24068996      -0.46670969       0.39872955 </v>
   <v>      -0.07345477       0.44215938      -0.03163972 </v>
   <v>      -0.54459127       0.11450290      -0.00190622 </v>
   <v>      -0.94837862       0.23542200      -0.78802501 </v>
   <v>       0.16741274      -0.65297922      -0.42645449 </v>
   <v>       0.19489431       0.92637108      -0.13162372 </v>
   <v>       0.25436336      -0.02255436       1.16529242 </v>
   <v>       0.91179434      -0.25973955      -0.44613094 </v>
   <v>       0.52207731       0.28994318       0.03396462 </v>
   <v>       0.38487570      -0.08569841      -0.96390372 </v>
   <v>      -0.28249771      -0.33138977       0.62914408 </v>
   <v>       0.30915348       0.07992866      -1.05243041 </v>
   <v>       0.90624851       0.39139584      -0.26717817 </v>
   <v>      -0.59872423       0.33459599       0.14361902 </v>
   <v>      -0.37254343      -0.30523124       0.73102349 </v>
   <v>       0.19778870      -0.27914584      -0.08237786 </v>
   <v>      -1.14614945      -0.03395773      -0.67015382 </v>
   <v>      -0.06645632      -0.43011881       0.93372611 </v>
   <v>       0.16199920       0.78683296       1.03793979 </v>
   <v>       0.03888647       0.35465748      -0.54917273 </v>
   <v>       0.41106590      -0.34147200       0.32820689 </v>
   <v>      -0.21417650       0.00804216       0.07183636 </v>
   <v>       1.70132512      -0.49614968       0.34084632 </v>
   <v>      -0.23313052      -0.74502837      -0.83216144 </v>
   <v>       0.28310706       0.18212586       0.81681703 </v>
   <v>       0.43999309      -1.93922842       0.23159962 </v>
   <v>      -0.59154693       0.81294046      -0.07401153 </v>
   <v>       0.64887523       0.12611693       0.44888276 </v>
   <v>       0.31238716       0.06520337      -0.73993258 </v>
   <v>      -0.55185253      -0.41802458      -0.68210545 </v>
   <v>      -0.13492006       0.45669531      -0.74753490 </v>
   <v>      -0.20860042      -0.00114518       1.60763259 </v>
   <v>       0.56057492      -0.62793725       0.02529972 </v>
   <v>      -0.16046900       0.53984846       0.31974614 </v>
   <v>      -0.18803322       0.68819818       0.41346634 </v>
   <v>      -0.49957245      -0.03637609       0.72486820 </v>
   <v>      -0.41643076      -0.47499246      -0.61740015 </v>
   <v>      -0.26303692       0.33999251      -0.20315805 </v>
  </varray>
  <varray name="stress" >
   <v>      -9.60887081      -8.98063308      -0.67978144 </v>
   <v>      -8.98063307      20.23601868      -4.92686983 </v>
   <v>      -0.67978142      -4.92686975       5.72259960 </v>
  </varray>
  <energy>
   <i name="e_fr_energy">   -255.43750796 </i>
   <i name="e_wo_entrp">   -255.43750796 </i>
   <i name="e_0_energy">     -0.00000000 </i>
  </energy>
  <time name="totalsc">   62.38   62.41</time>
  <eigenvalues>
   <array>
    <dimension dim="1">band</dimension>
    <dimension dim="2">kpoint</dimension>
    <dimension dim="3">spin</dimension>
    <field>eigene</field>
    <field>occ</field>
    <set>
     <set comment="spin 1">
      <set comment="kpoint 1">
       <r>  -44.4498    1.0000 </r>
       <r>  -44.1197    1.0000 </r>
       <r>  -43.9642    1.0000 </r>
       <r>  -43.9325    1.0000 </r>
       <r>  -43.8761    1.0000 </r>
       <r>  -43.6630    1.0000 </r>
       <r>  -43.6380    1.0000 </r>
       <r>  -43.5732    1.0000 </r>
       <r>  -43.5665    1.0000 </r>
       <r>  -43.5226    1.0000 </r>
       <r>  -43.5121    1.0000 </r>
       <r>  -43.4791    1.0000 </r>
       <r>  -43.4652    1.0000 </r>
       <r>  -43.4122    1.0000 </r>
       <r>  -43.3351    1.0000 </r>
       <r>  -43.3286    1.0000 </r>
       <r>  -43.2445    1.0000 </r>
       <r>  -43.2320    1.0000 </r>
       <r>  -43.2165    1.0000 </r>
       <r>  -43.2019    1.0000 </r>
       <r>  -43.1584    1.0000 </r>
       <r>  -43.0877    1.0000 </r>
       <r>  -43.0528    1.0000 </r>
       <r>  -43.0426    1.0000 </r>
       <r>  -43.0160    1.0000 </r>
       <r>  -42.9204    1.0000 </r>
       <r>  -42.9154    1.0000 </r>
       <r>  -42.9121    1.0000 </r>
       <r>  -42.8605    1.0000 </r>
       <r>  -42.3442    1.0000 </r>
       <r>  -14.2934    1.0000 </r>
       <r>  -13.4457    1.0000 </r>
       <r>  -13.3415    1.0000 </r>
       <r>  -13.2483    1.0000 </r>
       <r>  -13.2402    1.0000 </r>
       <r>  -13.1411    1.0000 </r>
       <r>  -12.7816    1.0000 </r>
       <r>  -12.7145    1.0000 </r>
       <r>  -12.2219    1.0000 </r>
       <r>  -12.0932    1.0000 </r>
       <r>  -11.9580    1.0000 </r>
       <r>  -11.8201    1.0000 </r>
       <r>  -11.6634    1.0000 </r>
       <r>  -11.4706    1.0000 </r>
       <r>  -11.3691    1.0000 </r>
       <r>  -10.6452    1.0000 </r>
       <r>  -10.4416    1.0000 </r>
       <r>  -10.2681    1.0000 </r>
       <r>  -10.2350    1.0000 </r>
       <r>   -9.9845    1.0000 </r>
       <r>   -9.9212    1.0000 </r>
       <r>   -9.5768    1.0000 </r>
       <r>   -9.1374    1.0000 </r>
       <r>   -8.9183    1.0000 </r>
       <r>   -8.6222    1.0000 </r>
       <r>   -8.4818    1.0000 </r>
       <r>   -8.4177    1.0000 </r>
       <r>   -8.3839    1.0000 </r>
       <r>   -8.2419    1.0000 </r>
       <r>   -7.9524    1.0000 </r>
       <r>   -7.6286    1.0000 </r>
       <r>   -7.5314    1.0000 </r>
       <r>   -6.5587    1.0000 </r>
       <r>   -6.0612    1.0000 </r>
       <r>   -5.3125    1.0000 </r>
       <r>   -4.0935    1.0000 </r>
       <r>   -3.6059    1.0000 </r>
       <r>   -3.4533    1.0000 </r>
       <r>   -3.3548    1.0000 </r>
       <r>   -3.2773    1.0000 </r>
       <r>   -3.1764    1.0000 </r>
       <r>   -2.9354    1.0000 </r>
       <r>   -2.8383    1.0000 </r>
       <r>   -2.6613    1.0000 </r>
       <r>   -2.5970    1.0000 </r>
       <r>   -2.5130    1.0000 </r>
       <r>   -2.4656    1.0000 </r>
       <r>   -2.4364    1.0000 </r>
       <r>   -2.3802    1.0000 </r>
       <r>   -2.3570    1.0000 </r>
       <r>   -2.3056    1.0000 </r>
       <r>   -2.2569    1.0000 </r>
       <r>   -2.1473    1.0000 </r>
       <r>   -2.1044    1.0000 </r>
       <r>   -2.0044    1.0000 </r>
       <r>   -1.9585    1.0000 </r>
       <r>   -1.8874    1.0000 </r>
       <r>   -1.8640    1.0000 </r>
       <r>   -1.8383    1.0000 </r>
       <r>   -1.7916    1.0000 </r>
       <r>   -1.7365    1.0000 </r>
       <r>   -1.6389    1.0000 </r>
       <r>   -1.5520    1.0000 </r>
       <r>   -1.4848    1.0000 </r>
       <r>   -1.4663    1.0000 </r>
       <r>   -1.4029    1.0000 </r>
       <r>   -1.3422    1.0000 </r>
       <r>   -1.3167    1.0000 </r>
       <r>   -1.2104    1.0000 </r>
       <r>   -1.1826    1.0000 </r>
       <r>   -1.1126    1.0000 </r>
       <r>   -1.0695    1.0000 </r>
       <r>   -0.9410    1.0000 </r>
       <r>   -0.8453    1.0000 </r>
       <r>   -0.8202    1.0000 </r>
       <r>   -0.7864    1.0000 </r>
       <r>   -0.7138    1.0000 </r>
       <r>   -0.6564    1.0000 </r>
       <r>   -0.5769    1.0000 </r>
       <r>   -0.4847    1.0000 </r>
       <r>   -0.4176    1.0000 </r>
       <r>   -0.4048    1.0000 </r>
       <r>   -0.3038    1.0000 </r>
       <r>   -0.2398    1.0000 </r>
       <r>   -0.2145    1.0000 </r>
       <r>   -0.1411    1.0000 </r>
       <r>   -0.1039    1.0000 </r>
       <r>   -0.0133    1.0000 </r>
       <r>    0.0072    1.0000 </r>
       <r>    0.0371    1.0000 </r>
       <r>    0.1160    1.0000 </r>
       <r>    0.1925    1.0000 </r>
       <r>    0.2442    1.0000 </r>
       <r>    0.2865    1.0000 </r>
       <r>    0.3284    1.0000 </r>
       <r>    0.3554    1.0000 </r>
       <r>    0.4389    1.0000 </r>
       <r>    0.5065    1.0000 </r>
       <r>    0.5494    1.0000 </r>
       <r>    0.6253    1.0000 </r>
       <r>    0.6450    1.0000 </r>
       <r>    0.7020    1.0000 </r>
       <r>    0.8107    1.0000 </r>
       <r>    0.8566    1.0000 </r>
       <r>    0.8991    1.0000 </r>
       <r>    0.9203    1.0000 </r>
       <r>    1.0406    1.0000 </r>
       <r>    1.0855    1.0000 </r>
       <r>    1.1245    1.0000 </r>
       <r>    1.1855    1.0000 </r>
       <r>    1.2586    1.0000 </r>
       <r>    1.2682    1.0000 </r>
       <r>    1.3628    1.0000 </r>
       <r>    1.4152    1.0000 </r>
       <r>    1.5442    1.0000 </r>
       <r>    1.6665    1.0000 </r>
       <r>    1.7769    1.0000 </r>
       <r>    1.8601    1.0000 </r>
       <r>    1.9842    1.0000 </r>
       <r>    2.2332    1.0000 </r>
       <r>    3.5562    0.0000 </r>
       <r>    3.6518    0.0000 </r>
       <r>    3.7181    0.0000 </r>
       <r>    3.8189    0.0000 </r>
       <r>    4.0398    0.0000 </r>
       <r>    4.0932    0.0000 </r>
       <r>    4.2315    0.0000 </r>
       <r>    4.4082    0.0000 </r>
       <r>    4.6275    0.0000 </r>
       <r>    4.7127    0.0000 </r>
       <r>    4.8158    0.0000 </r>
       <r>    5.0433    0.0000 </r>
       <r>    5.1421    0.0000 </r>
       <r>    5.3147    0.0000 </r>
       <r>    5.3950    0.0000 </r>
       <r>    5.4568    0.0000 </r>
       <r>    5.5653    0.0000 </r>
       <r>    5.7363    0.0000 </r>
       <r>    5.8851    0.0000 </r>
       <r>    6.0754    0.0000 </r>
       <r>    6.1393    0.0000 </r>
       <r>    6.1592    0.0000 </r>
       <r>    6.3128    0.0000 </r>
       <r>    6.4543    0.0000 </r>
       <r>    6.5001    0.0000 </r>
       <r>    6.6306    0.0000 </r>
       <r>    6.7785    0.0000 </r>
       <r>    6.8238    0.0000 </r>
       <r>    6.8502    0.0000 </r>
       <r>    6.9618    0.0000 </r>
       <r>    7.0530    0.0000 </r>
       <r>    7.0779    0.0000 </r>
       <r>    7.2324    0.0000 </r>
       <r>    7.3858    0.0000 </r>
      </set>
     </set>
    </set>
   </array>
  </eigenvalues>
  <separator name="orbital magnetization" >
   <v name="MAGDIPOLOUT">      0.00000000      0.00000000      0.00000000</v>
  </separator>
  <dos>
   <i name="efermi">      2.58880092 </i>
   <total>
    <array>
     <dimension dim="1">gridpoints</dimension>
     <dimension dim="2">spin</dimension>
     <field>energy</field>
     <field>total</field>
     <field>integrated</field>
     <set>
      <set comment="spin 1">
       <r>   -47.0416     0.0000     0.0000 </r>
       <r>   -46.8515     0.0000     0.0000 </r>
       <r>   -46.6615     0.0000     0.0000 </r>
       <r>   -46.4714     0.0000     0.0000 </r>
       <r>   -46.2814     0.0000     0.0000 </r>
       <r>   -46.0913     0.0000     0.0000 </r>
       <r>   -45.9012     0.0000     0.0000 </r>
       <r>   -45.7112     0.0000     0.0000 </r>
       <r>   -45.5211     0.0000     0.0000 </r>
       <r>   -45.3310     0.0000     0.0000 </r>
       <r>   -45.1410     0.0000     0.0000 </r>
       <r>   -44.9509     0.0000     0.0000 </r>
       <r>   -44.7608     0.0000     0.0000 </r>
       <r>   -44.5708     0.0033     0.0006 </r>
       <r>   -44.3807    10.2533     1.9494 </r>
       <r>   -44.1906     0.5024     2.0449 </r>
       <r>   -44.0006    12.1686     4.3577 </r>
       <r>   -43.8105    29.3495     9.9360 </r>
       <r>   -43.6205    18.5824    13.4678 </r>
       <r>   -43.4304    66.4368    26.0951 </r>
       <r>   -43.2403    45.1945    34.6849 </r>
       <r>   -43.0503    59.1348    45.9243 </r>
       <r>   -42.8602    56.4749    56.6581 </r>
       <r>   -42.6701     7.0602    58.0000 </r>
       <r>   -42.4801     0.0006    58.0001 </r>
       <r>   -42.2900     9.8640    59.8749 </r>
       <r>   -42.0999     0.6581    60.0000 </r>
       <r>   -41.9099     0.0000    60.0000 </r>
       <r>   -41.7198     0.0000    60.0000 </r>
       <r>   -41.5298     0.0000    60.0000 </r>
       <r>   -41.3397     0.0000    60.0000 </r>
       <r>   -41.1496     0.0000    60.0000 </r>
       <r>   -40.9596     0.0000    60.0000 </r>
       <r>   -40.7695     0.0000    60.0000 </r>
       <r>   -40.5794     0.0000    60.0000 </r>
       <r>   -40.3894     0.0000    60.0000 </r>
       <r>   -40.1993     0.0000    60.0000 </r>
       <r>   -40.0092     0.0000    60.0000 </r>
       <r>   -39.8192     0.0000    60.0000 </r>
       <r>   -39.6291     0.0000    60.0000 </r>
       <r>   -39.4391     0.0000    60.0000 </r>
       <r>   -39.2490     0.0000    60.0000 </r>
       <r>   -39.0589     0.0000    60.0000 </r>
       <r>   -38.8689     0.0000    60.0000 </r>
       <r>   -38.6788     0.0000    60.0000 </r>
       <r>   -38.4887     0.0000    60.0000 </r>
       <r>   -38.2987     0.0000    60.0000 </r>
       <r>   -38.1086     0.0000    60.0000 </r>
       <r>   -37.9185     0.0000    60.0000 </r>
       <r>   -37.7285     0.0000    60.0000 </r>
       <r>   -37.5384     0.0000    60.0000 </r>
       <r>   -37.3484     0.0000    60.0000 </r>
       <r>   -37.1583     0.0000    60.0000 </r>
       <r>   -36.9682     0.0000    60.0000 </r>
       <r>   -36.7782     0.0000    60.0000 </r>
       <r>   -36.5881     0.0000    60.0000 </r>
       <r>   -36.3980     0.0000    60.0000 </r>
       <r>   -36.2080     0.0000    60.0000 </r>
       <r>   -36.0179     0.0000    60.0000 </r>
       <r>   -35.8278     0.0000    60.0000 </r>
       <r>   -35.6378     0.0000    60.0000 </r>
       <r>   -35.4477     0.0000    60.0000 </r>
       <r>   -35.2577     0.0000    60.0000 </r>
       <r>   -35.0676     0.0000    60.0000 </r>
       <r>   -34.8775     0.0000    60.0000 </r>
       <r>   -34.6875     0.0000    60.0000 </r>
       <r>   -34.4974     0.0000    60.0000 </r>
       <r>   -34.3073     0.0000    60.0000 </r>
       <r>   -34.1173     0.0000    60.0000 </r>
       <r>   -33.9272     0.0000    60.0000 </r>
       <r>   -33.7371     0.0000    60.0000 </r>
       <r>   -33.5471     0.0000    60.0000 </r>
       <r>   -33.3570     0.0000    60.0000 </r>
       <r>   -33.1669     0.0000    60.0000 </r>
       <r>   -32.9769     0.0000    60.0000 </r>
       <r>   -32.7868     0.0000    60.0000 </r>
       <r>   -32.5968     0.0000    60.0000 </r>
       <r>   -32.4067     0.0000    60.0000 </r>
       <r>   -32.2166     0.0000    60.0000 </r>
       <r>   -32.0266     0.0000    60.0000 </r>
       <r>   -31.8365     0.0000    60.0000 </r>
       <r>   -31.6464     0.0000    60.0000 </r>
       <r>   -31.4564     0.0000    60.0000 </r>
       <r>   -31.2663     0.0000    60.0000 </r>
       <r>   -31.0762     0.0000    60.0000 </r>
       <r>   -30.8862     0.0000    60.0000 </r>
       <r>   -30.6961     0.0000    60.0000 </r>
       <r>   -30.5061     0.0000    60.0000 </r>
       <r>   -30.3160     0.0000    60.0000 </r>
       <r>   -30.1259     0.0000    60.0000 </r>
       <r>   -29.9359     0.0000    60.0000 </r>
       <r>   -29.7458     0.0000    60.0000 </r>
       <r>   -29.5557     0.0000    60.0000 </r>
       <r>   -29.3657     0.0000    60.0000 </r>
       <r>   -29.1756     0.0000    60.0000 </r>
       <r>   -28.9855     0.0000    60.0000 </r>
       <r>   -28.7955     0.0000    60.0000 </r>
       <r>   -28.6054     0.0000    60.0000 </r>
       <r>   -28.4154     0.0000    60.0000 </r>
       <r>   -28.2253     0.0000    60.0000 </r>
       <r>   -28.0352     0.0000    60.0000 </r>
       <r>   -27.8452     0.0000    60.0000 </r>
       <r>   -27.6551     0.0000    60.0000 </r>
       <r>   -27.4650     0.0000    60.0000 </r>
       <r>   -27.2750     0.0000    60.0000 </r>
       <r>   -27.0849     0.0000    60.0000 </r>
       <r>   -26.8948     0.0000    60.0000 </r>
       <r>   -26.7048     0.0000    60.0000 </r>
       <r>   -26.5147     0.0000    60.0000 </r>
       <r>   -26.3247     0.0000    60.0000 </r>
       <r>   -26.1346     0.0000    60.0000 </r>
       <r>   -25.9445     0.0000    60.0000 </r>
       <r>   -25.7545     0.0000    60.0000 </r>
       <r>   -25.5644     0.0000    60.0000 </r>
       <r>   -25.3743     0.0000    60.0000 </r>
       <r>   -25.1843     0.0000    60.0000 </r>
       <r>   -24.9942     0.0000    60.0000 </r>
       <r>   -24.8041     0.0000    60.0000 </r>
       <r>   -24.6141     0.0000    60.0000 </r>
       <r>   -24.4240     0.0000    60.0000 </r>
       <r>   -24.2340     0.0000    60.0000 </r>
       <r>   -24.0439     0.0000    60.0000 </r>
       <r>   -23.8538     0.0000    60.0000 </r>
       <r>   -23.6638     0.0000    60.0000 </r>
       <r>   -23.4737     0.0000    60.0000 </r>
       <r>   -23.2836     0.0000    60.0000 </r>
       <r>   -23.0936     0.0000    60.0000 </r>
       <r>   -22.9035     0.0000    60.0000 </r>
       <r>   -22.7134     0.0000    60.0000 </r>
       <r>   -22.5234     0.0000    60.0000 </r>
       <r>   -22.3333     0.0000    60.0000 </r>
       <r>   -22.1432     0.0000    60.0000 </r>
       <r>   -21.9532     0.0000    60.0000 </r>
       <r>   -21.7631     0.0000    60.0000 </r>
       <r>   -21.5731     0.0000    60.0000 </r>
       <r>   -21.3830     0.0000    60.0000 </r>
       <r>   -21.1929     0.0000    60.0000 </r>
       <r>   -21.0029     0.0000    60.0000 </r>
       <r>   -20.8128     0.0000    60.0000 </r>
       <r>   -20.6227     0.0000    60.0000 </r>
       <r>   -20.4327     0.0000    60.0000 </r>
       <r>   -20.2426     0.0000    60.0000 </r>
       <r>   -20.0525     0.0000    60.0000 </r>
       <r>   -19.8625     0.0000    60.0000 </r>
       <r>   -19.6724     0.0000    60.0000 </r>
       <r>   -19.4824     0.0000    60.0000 </r>
       <r>   -19.2923     0.0000    60.0000 </r>
       <r>   -19.1022     0.0000    60.0000 </r>
       <r>   -18.9122     0.0000    60.0000 </r>
       <r>   -18.7221     0.0000    60.0000 </r>
       <r>   -18.5320     0.0000    60.0000 </r>
       <r>   -18.3420     0.0000    60.0000 </r>
       <r>   -18.1519     0.0000    60.0000 </r>
       <r>   -17.9618     0.0000    60.0000 </r>
       <r>   -17.7718     0.0000    60.0000 </r>
       <r>   -17.5817     0.0000    60.0000 </r>
       <r>   -17.3917     0.0000    60.0000 </r>
       <r>   -17.2016     0.0000    60.0000 </r>
       <r>   -17.0115     0.0000    60.0000 </r>
       <r>   -16.8215     0.0000    60.0000 </r>
       <r>   -16.6314     0.0000    60.0000 </r>
       <r>   -16.4413     0.0000    60.0000 </r>
       <r>   -16.2513     0.0000    60.0000 </r>
       <r>   -16.0612     0.0000    60.0000 </r>
       <r>   -15.8711     0.0000    60.0000 </r>
       <r>   -15.6811     0.0000    60.0000 </r>
       <r>   -15.4910     0.0000    60.0000 </r>
       <r>   -15.3010     0.0000    60.0000 </r>
       <r>   -15.1109     0.0000    60.0000 </r>
       <r>   -14.9208     0.0000    60.0000 </r>
       <r>   -14.7308     0.0000    60.0000 </r>
       <r>   -14.5407     0.0000    60.0000 </r>
       <r>   -14.3506     0.5554    60.1056 </r>
       <r>   -14.1606     9.9665    61.9998 </r>
       <r>   -13.9705     0.0009    62.0000 </r>
       <r>   -13.7804     0.0000    62.0000 </r>
       <r>   -13.5904     0.0002    62.0000 </r>
       <r>   -13.4003     9.9775    63.8964 </r>
       <r>   -13.2103    28.8066    69.3715 </r>
       <r>   -13.0202    13.8263    71.9994 </r>
       <r>   -12.8301     0.9014    72.1707 </r>
       <r>   -12.6401    19.9617    75.9647 </r>
       <r>   -12.4500     0.1858    76.0000 </r>
       <r>   -12.2599     1.4870    76.2826 </r>
       <r>   -12.0699    16.8888    79.4926 </r>
       <r>   -11.8798    13.5315    82.0644 </r>
       <r>   -11.6897    12.5864    84.4567 </r>
       <r>   -11.4997    10.2862    86.4117 </r>
       <r>   -11.3096    18.3940    89.9077 </r>
       <r>   -11.1195     0.4854    90.0000 </r>
       <r>   -10.9295     0.0000    90.0000 </r>
       <r>   -10.7394     0.0406    90.0077 </r>
       <r>   -10.5494    10.4591    91.9956 </r>
       <r>   -10.3593    10.4953    93.9904 </r>
       <r>   -10.1692    20.7392    97.9321 </r>
       <r>    -9.9792     6.7848    99.2217 </r>
       <r>    -9.7891    14.6168   101.9998 </r>
       <r>    -9.5990     2.7876   102.5296 </r>
       <r>    -9.4090     7.7362   104.0000 </r>
       <r>    -9.2189     0.1116   104.0212 </r>
       <r>    -9.0288    10.4093   105.9996 </r>
       <r>    -8.8388    10.3957   107.9755 </r>
       <r>    -8.6487     2.5128   108.4531 </r>
       <r>    -8.4587    17.4423   111.7682 </r>
       <r>    -8.2686    24.6251   116.4486 </r>
       <r>    -8.0785     8.1646   118.0004 </r>
       <r>    -7.8885    10.1503   119.9296 </r>
       <r>    -7.6984     0.6244   120.0482 </r>
       <r>    -7.5083    18.0862   123.4858 </r>
       <r>    -7.3183     2.7056   124.0000 </r>
       <r>    -7.1282     0.0000   124.0000 </r>
       <r>    -6.9381     0.0000   124.0000 </r>
       <r>    -6.7481     0.0000   124.0000 </r>
       <r>    -6.5580     5.3455   125.0160 </r>
       <r>    -6.3680     5.1773   126.0000 </r>
       <r>    -6.1779     0.0051   126.0010 </r>
       <r>    -5.9878    10.3177   127.9620 </r>
       <r>    -5.7978     0.2001   128.0000 </r>
       <r>    -5.6077     0.0000   128.0000 </r>
       <r>    -5.4176     0.0154   128.0029 </r>
       <r>    -5.2276    10.4213   129.9836 </r>
       <r>    -5.0375     0.0861   130.0000 </r>
       <r>    -4.8474     0.0000   130.0000 </r>
       <r>    -4.6574     0.0000   130.0000 </r>
       <r>    -4.4673     0.0000   130.0000 </r>
       <r>    -4.2773     0.0000   130.0000 </r>
       <r>    -4.0872     6.0046   131.1413 </r>
       <r>    -3.8971     4.5182   132.0000 </r>
       <r>    -3.7071     0.0223   132.0042 </r>
       <r>    -3.5170    10.8149   134.0597 </r>
       <r>    -3.3269    19.3101   137.7299 </r>
       <r>    -3.1369    21.0820   141.7368 </r>
       <r>    -2.9468     5.3304   142.7499 </r>
       <r>    -2.7567    17.0259   145.9860 </r>
       <r>    -2.5667    19.7199   149.7340 </r>
       <r>    -2.3766    41.3983   157.6023 </r>
       <r>    -2.1866    34.9219   164.2397 </r>
       <r>    -1.9965    27.4600   169.4588 </r>
       <r>    -1.8064    46.1508   178.2304 </r>
       <r>    -1.6164    27.9567   183.5440 </r>
       <r>    -1.4263    34.8707   190.1717 </r>
       <r>    -1.2362    33.6574   196.5687 </r>
       <r>    -1.0462    36.1137   203.4326 </r>
       <r>    -0.8561    19.3019   207.1012 </r>
       <r>    -0.6660    39.5529   214.6188 </r>
       <r>    -0.4760    24.8058   219.3335 </r>
       <r>    -0.2859    33.0807   225.6209 </r>
       <r>    -0.0959    38.8375   233.0025 </r>
       <r>     0.0942    39.0356   240.4218 </r>
       <r>     0.2843    34.2993   246.9408 </r>
       <r>     0.4743    37.5616   254.0799 </r>
       <r>     0.6644    38.6935   261.4341 </r>
       <r>     0.8545    29.3134   267.0056 </r>
       <r>     1.0445    33.4264   273.3587 </r>
       <r>     1.2346    38.4773   280.6718 </r>
       <r>     1.4247    33.9908   287.1323 </r>
       <r>     1.6147    15.5988   290.0970 </r>
       <r>     1.8048    18.8892   293.6872 </r>
       <r>     1.9949    18.6696   297.2356 </r>
       <r>     2.1849     4.9282   298.1723 </r>
       <r>     2.3750     9.6160   299.9999 </r>
       <r>     2.5650     0.0003   300.0000 </r>
       <r>     2.7551     0.0000   300.0000 </r>
       <r>     2.9452     0.0000   300.0000 </r>
       <r>     3.1352     0.0000   300.0000 </r>
       <r>     3.3253     0.0000   300.0000 </r>
       <r>     3.5154     1.3063   300.2483 </r>
       <r>     3.7054    22.8597   304.5931 </r>
       <r>     3.8955    17.7655   307.9697 </r>
       <r>     4.0856    14.0182   310.6340 </r>
       <r>     4.2756    16.5960   313.7883 </r>
       <r>     4.4657    11.0906   315.8962 </r>
       <r>     4.6557     9.4015   317.6831 </r>
[...]
        <r>  0.0005  0.0009  0.0000  0.0002  0.0000  0.0000  0.0000  0.0000  0.0000 </r>
        <r>  0.0004  0.0029  0.0001  0.0014  0.0000  0.0000  0.0000  0.0000  0.0000 </r>
        <r>  0.0009  0.0008  0.0001  0.0002  0.0000  0.0000  0.0000  0.0000  0.0000 </r>
        <r>  0.0002  0.0004  0.0021  0.0001  0.0000  0.0000  0.0000  0.0000  0.0000 </r>
        <r>  0.0006  0.0008  0.0005  0.0013  0.0000  0.0000  0.0000  0.0000  0.0000 </r>
        <r>  0.0007  0.0005  0.0031  0.0011  0.0000  0.0000  0.0000  0.0000  0.0000 </r>
        <r>  0.0011  0.0001  0.0003  0.0004  0.0000  0.0000  0.0000  0.0000  0.0000 </r>
        <r>  0.0005  0.0010  0.0003  0.0004  0.0000  0.0000  0.0000  0.0000  0.0000 </r>
        <r>  0.0002  0.0020  0.0013  0.0005  0.0000  0.0000  0.0000  0.0000  0.0000 </r>
        <r>  0.0001  0.0009  0.0001  0.0002  0.0000  0.0000  0.0000  0.0000  0.0000 </r>
        <r>  0.0001  0.0006  0.0005  0.0005  0.0000  0.0000  0.0000  0.0000  0.0000 </r>
        <r>  0.0004  0.0001  0.0002  0.0002  0.0000  0.0000  0.0000  0.0000  0.0000 </r>
        <r>  0.0004  0.0001  0.0006  0.0009  0.0000  0.0000  0.0000  0.0000  0.0000 </r>
        <r>  0.0004  0.0010  0.0011  0.0011  0.0000  0.0000  0.0000  0.0000  0.0000 </r>
        <r>  0.0004  0.0007  0.0002  0.0017  0.0000  0.0000  0.0000  0.0000  0.0000 </r>
        <r>  0.0012  0.0013  0.0002  0.0053  0.0000  0.0000  0.0000  0.0000  0.0000 </r>
        <r>  0.0006  0.0008  0.0001  0.0016  0.0000  0.0000  0.0000  0.0000  0.0000 </r>
        <r>  0.0001  0.0009  0.0005  0.0017  0.0000  0.0000  0.0000  0.0000  0.0000 </r>
        <r>  0.0003  0.0006  0.0009  0.0015  0.0000  0.0000  0.0000  0.0000  0.0000 </r>
        <r>  0.0001  0.0018  0.0014  0.0011  0.0000  0.0000  0.0000  0.0000  0.0000 </r>
        <r>  0.0007  0.0004  0.0004  0.0004  0.0000  0.0000  0.0000  0.0000  0.0000 </r>
        <r>  0.0001  0.0001  0.0003  0.0008  0.0000  0.0000  0.0000  0.0000  0.0000 </r>
        <r>  0.0016  0.0002  0.0007  0.0003  0.0000  0.0000  0.0000  0.0000  0.0000 </r>
        <r>  0.0009  0.0005  0.0004  0.0013  0.0000  0.0000  0.0000  0.0000  0.0000 </r>
        <r>  0.0005  0.0008  0.0010  0.0017  0.0000  0.0000  0.0000  0.0000  0.0000 </r>
        <r>  0.0005  0.0001  0.0001  0.0034  0.0000  0.0000  0.0000  0.0000  0.0000 </r>
        <r>  0.0005  0.0017  0.0022  0.0001  0.0000  0.0000  0.0000  0.0000  0.0000 </r>
        <r>  0.0017  0.0012  0.0012  0.0014  0.0000  0.0000  0.0000  0.0000  0.0000 </r>
        <r>  0.0001  0.0014  0.0005  0.0006  0.0000  0.0000  0.0000  0.0000  0.0000 </r>
        <r>  0.0024  0.0012  0.0017  0.0004  0.0000  0.0000  0.0000  0.0000  0.0000 </r>
        <r>  0.0005  0.0010  0.0002  0.0040  0.0000  0.0000  0.0000  0.0000  0.0000 </r>
        <r>  0.0000  0.0008  0.0002  0.0002  0.0000  0.0000  0.0000  0.0000  0.0000 </r>
        <r>  0.0005  0.0004  0.0007  0.0001  0.0000  0.0000  0.0000  0.0000  0.0000 </r>
        <r>  0.0000  0.0018  0.0010  0.0002  0.0000  0.0000  0.0000  0.0000  0.0000 </r>
        <r>  0.0013  0.0001  0.0022  0.0001  0.0000  0.0000  0.0000  0.0000  0.0000 </r>
        <r>  0.0021  0.0021  0.0000  0.0010  0.0000  0.0000  0.0000  0.0000  0.0000 </r>
        <r>  0.0000  0.0004  0.0002  0.0001  0.0000  0.0000  0.0000  0.0000  0.0000 </r>
        <r>  0.0003  0.0007  0.0006  0.0025  0.0000  0.0000  0.0000  0.0000  0.0000 </r>
        <r>  0.0006  0.0013  0.0006  0.0005  0.0000  0.0000  0.0000  0.0000  0.0000 </r>
       </set>
       <set comment="band 183">
        <r>  0.0005  0.0004  0.0011  0.0001  0.0000  0.0000  0.0000  0.0000  0.0000 </r>
        <r>  0.0001  0.0002  0.0005  0.0004  0.0000  0.0000  0.0000  0.0000  0.0000 </r>
        <r>  0.0001  0.0002  0.0007  0.0007  0.0000  0.0000  0.0000  0.0000  0.0000 </r>
        <r>  0.0000  0.0009  0.0001  0.0002  0.0000  0.0000  0.0000  0.0000  0.0000 </r>
        <r>  0.0014  0.0009  0.0010  0.0037  0.0000  0.0000  0.0000  0.0000  0.0000 </r>
        <r>  0.0004  0.0011  0.0004  0.0004  0.0000  0.0000  0.0000  0.0000  0.0000 </r>
        <r>  0.0000  0.0001  0.0006  0.0008  0.0000  0.0000  0.0000  0.0000  0.0000 </r>
        <r>  0.0003  0.0001  0.0006  0.0082  0.0000  0.0000  0.0000  0.0000  0.0000 </r>
        <r>  0.0000  0.0003  0.0002  0.0000  0.0000  0.0000  0.0000  0.0000  0.0000 </r>
        <r>  0.0002  0.0002  0.0009  0.0017  0.0000  0.0000  0.0000  0.0000  0.0000 </r>
        <r>  0.0000  0.0003  0.0001  0.0002  0.0000  0.0000  0.0000  0.0000  0.0000 </r>
        <r>  0.0001  0.0013  0.0001  0.0002  0.0000  0.0000  0.0000  0.0000  0.0000 </r>
        <r>  0.0002  0.0007  0.0000  0.0005  0.0000  0.0000  0.0000  0.0000  0.0000 </r>
        <r>  0.0002  0.0013  0.0006  0.0000  0.0000  0.0000  0.0000  0.0000  0.0000 </r>
        <r>  0.0003  0.0030  0.0012  0.0000  0.0000  0.0000  0.0000  0.0000  0.0000 </r>
        <r>  0.0005  0.0001  0.0004  0.0003  0.0000  0.0000  0.0000  0.0000  0.0000 </r>
        <r>  0.0005  0.0023  0.0032  0.0001  0.0000  0.0000  0.0000  0.0000  0.0000 </r>
        <r>  0.0001  0.0000  0.0005  0.0004  0.0000  0.0000  0.0000  0.0000  0.0000 </r>
        <r>  0.0014  0.0013  0.0001  0.0003  0.0000  0.0000  0.0000  0.0000  0.0000 </r>
        <r>  0.0000  0.0013  0.0009  0.0004  0.0000  0.0000  0.0000  0.0000  0.0000 </r>
        <r>  0.0002  0.0007  0.0020  0.0001  0.0000  0.0000  0.0000  0.0000  0.0000 </r>
        <r>  0.0004  0.0004  0.0001  0.0009  0.0000  0.0000  0.0000  0.0000  0.0000 </r>
        <r>  0.0000  0.0001  0.0000  0.0003  0.0000  0.0000  0.0000  0.0000  0.0000 </r>
        <r>  0.0001  0.0005  0.0004  0.0002  0.0000  0.0000  0.0000  0.0000  0.0000 </r>
        <r>  0.0002  0.0005  0.0004  0.0001  0.0000  0.0000  0.0000  0.0000  0.0000 </r>
        <r>  0.0002  0.0012  0.0002  0.0006  0.0000  0.0000  0.0000  0.0000  0.0000 </r>
        <r>  0.0006  0.0003  0.0006  0.0011  0.0000  0.0000  0.0000  0.0000  0.0000 </r>
        <r>  0.0000  0.0000  0.0006  0.0018  0.0000  0.0000  0.0000  0.0000  0.0000 </r>
        <r>  0.0008  0.0000  0.0021  0.0005  0.0000  0.0000  0.0000  0.0000  0.0000 </r>
        <r>  0.0011  0.0007  0.0007  0.0000  0.0000  0.0000  0.0000  0.0000  0.0000 </r>
        <r>  0.0003  0.0000  0.0003  0.0003  0.0000  0.0000  0.0000  0.0000  0.0000 </r>
        <r>  0.0003  0.0000  0.0020  0.0007  0.0000  0.0000  0.0000  0.0000  0.0000 </r>
        <r>  0.0001  0.0001  0.0001  0.0003  0.0000  0.0000  0.0000  0.0000  0.0000 </r>
        <r>  0.0003  0.0011  0.0005  0.0020  0.0000  0.0000  0.0000  0.0000  0.0000 </r>
        <r>  0.0000  0.0006  0.0013  0.0032  0.0000  0.0000  0.0000  0.0000  0.0000 </r>
        <r>  0.0007  0.0008  0.0013  0.0008  0.0000  0.0000  0.0000  0.0000  0.0000 </r>
        <r>  0.0002  0.0030  0.0005  0.0040  0.0000  0.0000  0.0000  0.0000  0.0000 </r>
        <r>  0.0001  0.0004  0.0005  0.0016  0.0000  0.0000  0.0000  0.0000  0.0000 </r>
        <r>  0.0004  0.0000  0.0004  0.0003  0.0000  0.0000  0.0000  0.0000  0.0000 </r>
        <r>  0.0001  0.0011  0.0007  0.0012  0.0000  0.0000  0.0000  0.0000  0.0000 </r>
        <r>  0.0001  0.0010  0.0003  0.0004  0.0000  0.0000  0.0000  0.0000  0.0000 </r>
        <r>  0.0001  0.0001  0.0018  0.0003  0.0000  0.0000  0.0000  0.0000  0.0000 </r>
        <r>  0.0003  0.0006  0.0017  0.0003  0.0000  0.0000  0.0000  0.0000  0.0000 </r>
        <r>  0.0004  0.0016  0.0004  0.0010  0.0000  0.0000  0.0000  0.0000  0.0000 </r>
        <r>  0.0002  0.0004  0.0003  0.0002  0.0000  0.0000  0.0000  0.0000  0.0000 </r>
        <r>  0.0002  0.0001  0.0002  0.0005  0.0000  0.0000  0.0000  0.0000  0.0000 </r>
        <r>  0.0009  0.0007  0.0003  0.0011  0.0000  0.0000  0.0000  0.0000  0.0000 </r>
        <r>  0.0006  0.0002  0.0011  0.0004  0.0000  0.0000  0.0000  0.0000  0.0000 </r>
        <r>  0.0002  0.0001  0.0018  0.0000  0.0000  0.0000  0.0000  0.0000  0.0000 </r>
        <r>  0.0003  0.0003  0.0004  0.0019  0.0000  0.0000  0.0000  0.0000  0.0000 </r>
        <r>  0.0046  0.0005  0.0006  0.0010  0.0000  0.0000  0.0000  0.0000  0.0000 </r>
        <r>  0.0002  0.0003  0.0008  0.0014  0.0000  0.0000  0.0000  0.0000  0.0000 </r>
        <r>  0.0005  0.0002  0.0004  0.0014  0.0000  0.0000  0.0000  0.0000  0.0000 </r>
        <r>  0.0012  0.0004  0.0008  0.0015  0.0000  0.0000  0.0000  0.0000  0.0000 </r>
        <r>  0.0003  0.0007  0.0004  0.0001  0.0000  0.0000  0.0000  0.0000  0.0000 </r>
        <r>  0.0007  0.0002  0.0000  0.0007  0.0000  0.0000  0.0000  0.0000  0.0000 </r>
        <r>  0.0004  0.0020  0.0003  0.0016  0.0000  0.0000  0.0000  0.0000  0.0000 </r>
        <r>  0.0000  0.0024  0.0000  0.0021  0.0000  0.0000  0.0000  0.0000  0.0000 </r>
        <r>  0.0002  0.0001  0.0004  0.0006  0.0000  0.0000  0.0000  0.0000  0.0000 </r>
        <r>  0.0005  0.0010  0.0010  0.0004  0.0000  0.0000  0.0000  0.0000  0.0000 </r>
        <r>  0.0001  0.0012  0.0019  0.0009  0.0000  0.0000  0.0000  0.0000  0.0000 </r>
        <r>  0.0004  0.0001  0.0017  0.0005  0.0000  0.0000  0.0000  0.0000  0.0000 </r>
        <r>  0.0001  0.0001  0.0002  0.0012  0.0000  0.0000  0.0000  0.0000  0.0000 </r>
        <r>  0.0018  0.0003  0.0014  0.0049  0.0000  0.0000  0.0000  0.0000  0.0000 </r>
        <r>  0.0003  0.0005  0.0003  0.0004  0.0000  0.0000  0.0000  0.0000  0.0000 </r>
       </set>
       <set comment="band 184">
        <r>  0.0000  0.0007  0.0001  0.0010  0.0000  0.0000  0.0000  0.0000  0.0000 </r>
        <r>  0.0029  0.0002  0.0036  0.0003  0.0000  0.0000  0.0000  0.0000  0.0000 </r>
        <r>  0.0015  0.0006  0.0008  0.0002  0.0000  0.0000  0.0000  0.0000  0.0000 </r>
        <r>  0.0002  0.0030  0.0001  0.0002  0.0000  0.0000  0.0000  0.0000  0.0000 </r>
        <r>  0.0001  0.0007  0.0006  0.0008  0.0000  0.0000  0.0000  0.0000  0.0000 </r>
        <r>  0.0006  0.0001  0.0000  0.0012  0.0000  0.0000  0.0000  0.0000  0.0000 </r>
        <r>  0.0001  0.0011  0.0011  0.0010  0.0000  0.0000  0.0000  0.0000  0.0000 </r>
        <r>  0.0001  0.0014  0.0006  0.0013  0.0000  0.0000  0.0000  0.0000  0.0000 </r>
        <r>  0.0010  0.0015  0.0012  0.0001  0.0000  0.0000  0.0000  0.0000  0.0000 </r>
        <r>  0.0003  0.0033  0.0001  0.0007  0.0000  0.0000  0.0000  0.0000  0.0000 </r>
        <r>  0.0000  0.0008  0.0000  0.0002  0.0000  0.0000  0.0000  0.0000  0.0000 </r>
        <r>  0.0003  0.0003  0.0004  0.0001  0.0000  0.0000  0.0000  0.0000  0.0000 </r>
        <r>  0.0007  0.0019  0.0002  0.0003  0.0000  0.0000  0.0000  0.0000  0.0000 </r>
        <r>  0.0001  0.0006  0.0000  0.0007  0.0000  0.0000  0.0000  0.0000  0.0000 </r>
        <r>  0.0010  0.0004  0.0011  0.0000  0.0000  0.0000  0.0000  0.0000  0.0000 </r>
        <r>  0.0006  0.0005  0.0005  0.0004  0.0000  0.0000  0.0000  0.0000  0.0000 </r>
        <r>  0.0003  0.0000  0.0002  0.0001  0.0000  0.0000  0.0000  0.0000  0.0000 </r>
        <r>  0.0001  0.0001  0.0010  0.0000  0.0000  0.0000  0.0000  0.0000  0.0000 </r>
        <r>  0.0002  0.0004  0.0008  0.0002  0.0000  0.0000  0.0000  0.0000  0.0000 </r>
        <r>  0.0003  0.0007  0.0016  0.0002  0.0000  0.0000  0.0000  0.0000  0.0000 </r>
        <r>  0.0003  0.0022  0.0006  0.0028  0.0000  0.0000  0.0000  0.0000  0.0000 </r>
        <r>  0.0000  0.0005  0.0006  0.0006  0.0000  0.0000  0.0000  0.0000  0.0000 </r>
        <r>  0.0001  0.0002  0.0002  0.0003  0.0000  0.0000  0.0000  0.0000  0.0000 </r>
        <r>  0.0000  0.0001  0.0001  0.0003  0.0000  0.0000  0.0000  0.0000  0.0000 </r>
        <r>  0.0001  0.0003  0.0000  0.0001  0.0000  0.0000  0.0000  0.0000  0.0000 </r>
        <r>  0.0001  0.0002  0.0000  0.0010  0.0000  0.0000  0.0000  0.0000  0.0000 </r>
        <r>  0.0001  0.0000  0.0006  0.0013  0.0000  0.0000  0.0000  0.0000  0.0000 </r>
        <r>  0.0001  0.0005  0.0001  0.0004  0.0000  0.0000  0.0000  0.0000  0.0000 </r>
        <r>  0.0004  0.0002  0.0012  0.0005  0.0000  0.0000  0.0000  0.0000  0.0000 </r>
        <r>  0.0002  0.0009  0.0006  0.0007  0.0000  0.0000  0.0000  0.0000  0.0000 </r>
        <r>  0.0017  0.0003  0.0005  0.0002  0.0000  0.0000  0.0000  0.0000  0.0000 </r>
        <r>  0.0001  0.0003  0.0012  0.0003  0.0000  0.0000  0.0000  0.0000  0.0000 </r>
        <r>  0.0005  0.0002  0.0002  0.0001  0.0000  0.0000  0.0000  0.0000  0.0000 </r>
        <r>  0.0003  0.0011  0.0013  0.0037  0.0000  0.0000  0.0000  0.0000  0.0000 </r>
        <r>  0.0004  0.0003  0.0007  0.0055  0.0000  0.0000  0.0000  0.0000  0.0000 </r>
        <r>  0.0002  0.0000  0.0005  0.0012  0.0000  0.0000  0.0000  0.0000  0.0000 </r>
        <r>  0.0015  0.0012  0.0004  0.0008  0.0000  0.0000  0.0000  0.0000  0.0000 </r>
        <r>  0.0004  0.0009  0.0004  0.0005  0.0000  0.0000  0.0000  0.0000  0.0000 </r>
        <r>  0.0007  0.0006  0.0004  0.0003  0.0000  0.0000  0.0000  0.0000  0.0000 </r>
        <r>  0.0014  0.0003  0.0002  0.0008  0.0000  0.0000  0.0000  0.0000  0.0000 </r>
        <r>  0.0007  0.0010  0.0004  0.0001  0.0000  0.0000  0.0000  0.0000  0.0000 </r>
        <r>  0.0002  0.0022  0.0013  0.0045  0.0000  0.0000  0.0000  0.0000  0.0000 </r>
        <r>  0.0003  0.0000  0.0006  0.0000  0.0000  0.0000  0.0000  0.0000  0.0000 </r>
        <r>  0.0000  0.0004  0.0003  0.0000  0.0000  0.0000  0.0000  0.0000  0.0000 </r>
        <r>  0.0012  0.0004  0.0006  0.0007  0.0000  0.0000  0.0000  0.0000  0.0000 </r>
        <r>  0.0004  0.0017  0.0019  0.0007  0.0000  0.0000  0.0000  0.0000  0.0000 </r>
        <r>  0.0001  0.0000  0.0008  0.0015  0.0000  0.0000  0.0000  0.0000  0.0000 </r>
        <r>  0.0006  0.0005  0.0002  0.0001  0.0000  0.0000  0.0000  0.0000  0.0000 </r>
        <r>  0.0000  0.0003  0.0017  0.0002  0.0000  0.0000  0.0000  0.0000  0.0000 </r>
        <r>  0.0003  0.0001  0.0005  0.0005  0.0000  0.0000  0.0000  0.0000  0.0000 </r>
        <r>  0.0004  0.0001  0.0000  0.0003  0.0000  0.0000  0.0000  0.0000  0.0000 </r>
        <r>  0.0000  0.0007  0.0006  0.0004  0.0000  0.0000  0.0000  0.0000  0.0000 </r>
        <r>  0.0003  0.0009  0.0012  0.0007  0.0000  0.0000  0.0000  0.0000  0.0000 </r>
        <r>  0.0017  0.0013  0.0001  0.0009  0.0000  0.0000  0.0000  0.0000  0.0000 </r>
        <r>  0.0004  0.0004  0.0005  0.0000  0.0000  0.0000  0.0000  0.0000  0.0000 </r>
        <r>  0.0003  0.0049  0.0009  0.0004  0.0000  0.0000  0.0000  0.0000  0.0000 </r>
        <r>  0.0003  0.0003  0.0006  0.0007  0.0000  0.0000  0.0000  0.0000  0.0000 </r>
        <r>  0.0003  0.0001  0.0003  0.0002  0.0000  0.0000  0.0000  0.0000  0.0000 </r>
        <r>  0.0007  0.0008  0.0020  0.0016  0.0000  0.0000  0.0000  0.0000  0.0000 </r>
        <r>  0.0002  0.0008  0.0002  0.0009  0.0000  0.0000  0.0000  0.0000  0.0000 </r>
        <r>  0.0031  0.0007  0.0042  0.0011  0.0000  0.0000  0.0000  0.0000  0.0000 </r>
        <r>  0.0016  0.0001  0.0009  0.0004  0.0000  0.0000  0.0000  0.0000  0.0000 </r>
        <r>  0.0004  0.0003  0.0005  0.0007  0.0000  0.0000  0.0000  0.0000  0.0000 </r>
        <r>  0.0005  0.0005  0.0011  0.0011  0.0000  0.0000  0.0000  0.0000  0.0000 </r>
        <r>  0.0001  0.0001  0.0007  0.0002  0.0000  0.0000  0.0000  0.0000  0.0000 </r>
       </set>
      </set>
     </set>
    </set>
   </array>
  </projected>
 </calculation>
 <structure name="finalpos" >
  <crystal>
   <varray name="basis" >
    <v>      10.25000000       0.00000000       0.00000000 </v>
    <v>       0.00000000      10.25000000       0.00000000 </v>
    <v>       0.00000000       0.00000000      12.35000000 </v>
   </varray>
   <i name="volume">   1297.52187500 </i>
   <varray name="rec_basis" >
    <v>       0.09756098       0.00000000       0.00000000 </v>
    <v>       0.00000000       0.09756098       0.00000000 </v>
    <v>       0.00000000       0.00000000       0.08097166 </v>
   </varray>
  </crystal>
  <varray name="positions" >
   <v>       0.62240878       0.90422732       0.99194332 </v>
   <v>       0.73139610       0.56917561       0.61374332 </v>
   <v>       0.23429366       0.17288585       0.03431555 </v>
   <v>       0.15150634       0.68460585       0.18914089 </v>
   <v>       0.25241951       0.18204976       0.31944858 </v>
   <v>       0.20478341       0.06034946       0.65460000 </v>
   <v>       0.75711805       0.56408683       0.22061134 </v>
   <v>       0.50876976       0.07386166       0.30938947 </v>
   <v>       0.98352195       0.92945073       0.59363563 </v>
   <v>       0.92445268       0.36304195       0.23593279 </v>
   <v>       0.43658537       0.98233171       0.53554980 </v>
   <v>       0.88622634       0.58717171       0.02683830 </v>
   <v>       0.03031229       0.35795805       0.73172470 </v>
   <v>       0.31102634       0.52277268       0.58922348 </v>
   <v>       0.59384488       0.24753951       0.99923887 </v>
   <v>       0.83609463       0.20719220       0.82531984 </v>
   <v>       0.62145951       0.53283707       0.98332794 </v>
   <v>       0.46143220       0.40170829       0.44096113 </v>
   <v>       0.47935024       0.65728293       0.15217328 </v>
   <v>       0.22682439       0.73935512       0.86788664 </v>
   <v>       0.66845463       0.26764780       0.22256680 </v>
   <v>       0.96368000       0.69368878       0.72577571 </v>
   <v>       0.01073463       0.35574634       0.45530364 </v>
   <v>       0.91163610       0.21614439       0.03738826 </v>
   <v>       0.69993073       0.11759610       0.44795142 </v>
   <v>       0.55582439       0.64059805       0.77644777 </v>
   <v>       0.64334732       0.87223024       0.24271255 </v>
   <v>       0.67607317       0.05244146       0.77086235 </v>
   <v>       0.60319122       0.25866341       0.62666559 </v>
   <v>       0.92853171       0.89525951       0.01231296 </v>
   <v>       0.30617951       0.61344976       0.33918785 </v>
   <v>       0.27504390       0.47785561       0.88686640 </v>
   <v>       0.09179883       0.42254049       0.98580567 </v>
   <v>       0.19393366       0.70808976       0.48315466 </v>
   <v>       0.97318146       0.62398634       0.46072955 </v>
   <v>       0.37352098       0.10917366       0.80326316 </v>
   <v>       0.38249951       0.89370634       0.22786640 </v>
   <v>       0.44924878       0.92357756       0.82325506 </v>
   <v>       0.20104976       0.91185366       0.49796680 </v>
   <v>       0.83500195       0.74300683       0.54151255 </v>
   <v>       0.03116341       0.18760293       0.58353036 </v>
   <v>       0.51209463       0.61302927       0.33564049 </v>
   <v>       0.39374927       0.62914634       0.95669636 </v>
   <v>       0.19796000       0.37498439       0.13787935 </v>
   <v>       0.18184585       0.56135610       0.74143806 </v>
   <v>       0.75554049       0.37412976       0.07190016 </v>
   <v>       0.77069463       0.55672683       0.82529555 </v>
   <v>       0.07090820       0.25172488       0.89591903 </v>
   <v>       0.95536195       0.63843024       0.28925506 </v>
   <v>       0.06453688       0.22133073       0.18082348 </v>
   <v>       0.77972000       0.06395824       0.96731174 </v>
   <v>       0.83611805       0.10799610       0.59885749 </v>
   <v>       0.46452488       0.19585366       0.46420405 </v>
   <v>       0.70604878       0.71509756       0.08858300 </v>
   <v>       0.79099610       0.39078732       0.72130607 </v>
   <v>       0.43647024       0.18071902       0.15088421 </v>
   <v>       0.53445171       0.24014244       0.81294737 </v>
   <v>       0.57277463       0.85828000       0.70228421 </v>
   <v>       0.41458049       0.99563902       0.07566251 </v>
   <v>       0.22949268       0.44204000       0.41257652 </v>
   <v>       0.52421366       0.48344585       0.60548097 </v>
   <v>       0.79958244       0.32277854       0.37584049 </v>
   <v>       0.10521171       0.88937171       0.74957004 </v>
   <v>       0.75370049       0.04442195       0.29153117 </v>
   <v>       0.08345463       0.73594049       0.02309628 </v>
  </varray>
 </structure>
</modeling>
