LPSC                                    
           1
    10.250000    0.000000    0.000000
     0.000000   10.250000    0.000000
     0.000000    0.000000   12.350000
   Li   P    S    Cl
  30   5  25   5
Direct configuration=     1
   0.62240878  0.90422732  0.99194332
   0.73139610  0.56917561  0.61374332
   0.23429366  0.17288585  0.03431555
   0.15150634  0.68460585  0.18914089
   0.25241951  0.18204976  0.31944858
   0.20478341  0.06034946  0.65460000
   0.75711805  0.56408683  0.22061134
   0.50876976  0.07386166  0.30938947
   0.98352195  0.92945073  0.59363563
   0.92445268  0.36304195  0.23593279
   0.43658537  0.98233171  0.53554980
   0.88622634  0.58717171  0.02683830
   0.03031229  0.35795805  0.73172470
   0.31102634  0.52277268  0.58922348
   0.59384488  0.24753951  0.99923887
   0.83609463  0.20719220  0.82531984
   0.62145951  0.53283707  0.98332794
   0.46143220  0.40170829  0.44096113
   0.47935024  0.65728293  0.15217328
   0.22682439  0.73935512  0.86788664
   0.66845463  0.26764780  0.22256680
   0.96368000  0.69368878  0.72577571
   0.01073463  0.35574634  0.45530364
   0.91163610  0.21614439  0.03738826
   0.69993073  0.11759610  0.44795142
   0.55582439  0.64059805  0.77644777
   0.64334732  0.87223024  0.24271255
   0.67607317  0.05244146  0.77086235
   0.60319122  0.25866341  0.62666559
   0.92853171  0.89525951  0.01231296
   0.30617951  0.61344976  0.33918785
   0.27504390  0.47785561  0.88686640
   0.09179883  0.42254049  0.98580567
   0.19393366  0.70808976  0.48315466
   0.97318146  0.62398634  0.46072955
   0.37352098  0.10917366  0.80326316
   0.38249951  0.89370634  0.22786640
   0.44924878  0.92357756  0.82325506
   0.20104976  0.91185366  0.49796680
   0.83500195  0.74300683  0.54151255
   0.03116341  0.18760293  0.58353036
   0.51209463  0.61302927  0.33564049
   0.39374927  0.62914634  0.95669636
   0.19796000  0.37498439  0.13787935
   0.18184585  0.56135610  0.74143806
   0.75554049  0.37412976  0.07190016
   0.77069463  0.55672683  0.82529555
   0.07090820  0.25172488  0.89591903
   0.95536195  0.63843024  0.28925506
   0.06453688  0.22133073  0.18082348
   0.77972000  0.06395824  0.96731174
   0.83611805  0.10799610  0.59885749
   0.46452488  0.19585366  0.46420405
   0.70604878  0.71509756  0.08858300
   0.79099610  0.39078732  0.72130607
   0.43647024  0.18071902  0.15088421
   0.53445171  0.24014244  0.81294737
   0.57277463  0.85828000  0.70228421
   0.41458049  0.99563902  0.07566251
   0.22949268  0.44204000  0.41257652
   0.52421366  0.48344585  0.60548097
   0.79958244  0.32277854  0.37584049
   0.10521171  0.88937171  0.74957004
   0.75370049  0.04442195  0.29153117
   0.08345463  0.73594049  0.02309628
