ITEM: TIMESTEP
0
ITEM: NUMBER OF ATOMS
208
ITEM: BOX BOUNDS pp pp pp
0.0000000000000000e+00 1.6026081999999999e+01
0.0000000000000000e+00 1.6100000000000001e+01
0.0000000000000000e+00 1.6425367000000001e+01
ITEM: ATOMS id type x y z fx fy fz
7 1 3.8881 0.69455 0.79182 -0.102332 0.123763 0.271006
36 1 1.16169 2.58912 2.09403 0.766242 -0.0975404 0.330525
198 4 2.27568 2.69111 0.02067 0.281247 0.0664494 0.311038
9 1 1.86208 0.10337 5.91428 -0.660699 0.71589 -0.377021
50 1 0.13519 3.43725 4.51266 0.620022 0.0358494 0.164739
123 3 2.06719 2.09147 4.4093 -0.272372 -0.408684 -0.150314
44 1 3.82062 0.31898 12.2038 0.0767671 -0.232211 -0.296869
94 1 3.24878 2.92708 10.6443 0.475853 0.198645 -0.13414
75 1 1.97898 2.77401 13.8859 0.466814 -0.37422 -0.806019
189 3 0.02448 3.46133 12.7506 0.17895 0.503654 0.459699
124 3 3.81922 5.53389 3.01408 -1.65928 -0.675162 0.416066
51 1 2.64736 4.23863 4.91466 0.952662 -0.0804181 -0.200007
53 1 2.22251 7.56936 5.35944 0.758794 0.418745 -0.431051
60 1 1.80248 6.33568 7.73269 -0.18189 0.308195 -0.423036
185 3 0.96484 5.70143 5.56291 -0.147635 -0.0732352 0.153758
195 4 3.9797 7.44925 7.02577 -0.669976 -0.927677 0.0153775
21 1 2.74828 7.3408 11.2047 -0.0191624 0.704532 0.302938
29 1 1.04551 5.10279 11.4643 0.133024 -0.500366 -0.0539124
134 3 0.59908 7.1985 12.3122 -0.259343 -0.152818 0.547308
143 3 0.79565 8.02117 9.29961 0.232183 0.414202 0.908352
200 4 1.77087 4.12295 9.47599 -0.256942 0.436971 -0.239048
73 1 0.10427 5.49927 14.3682 -0.764552 -0.732119 -0.858802
78 1 3.23899 7.39809 15.6303 0.265968 0.234054 0.50494
181 3 3.58042 7.50475 13.4856 0.844757 0.123499 -0.102165
205 4 1.04076 6.75312 16.167 -0.262731 -0.243518 -0.384896
56 1 1.98736 9.66134 1.27109 0.575743 0.0421884 0.342124
169 3 2.72343 9.47626 3.61049 -0.188979 -0.21883 0.0329245
201 4 1.49419 11.8745 1.10867 -0.188702 -0.316841 -0.0636434
58 1 0.86139 11.5253 4.90317 0.209781 0.232185 -0.321974
131 3 0.98885 9.41179 6.39851 0.775417 0.970906 -0.892493
172 3 3.79561 11.5775 6.15313 0.282802 -0.127452 -0.421736
18 1 2.89604 11.3266 10.1609 0.296788 0.640999 0.721473
104 2 1.57531 9.72031 8.55298 -0.0717434 -0.0655959 -0.0195808
141 3 0.6114 11.4905 9.24486 0.155745 -1.08454 0.065837
11 1 1.51648 11.1205 14.9988 0.0569461 0.187136 -0.466221
26 1 1.17167 8.23412 14.3491 0.458654 0.167269 0.0126558
27 1 3.80445 9.83682 13.5665 -0.134141 -0.186398 -0.189385
144 3 2.67657 11.6555 12.7341 0.0996326 -0.267111 -0.236401
159 3 3.83083 9.77272 16.1664 -0.133712 0.197098 -0.387138
10 1 3.87835 12.1583 0.67928 0.0469385 -0.144568 0.0745686
77 1 1.65914 14.1746 1.02855 -1.15473 -0.0216682 0.438415
178 3 3.6501 14.516 0.05653 -0.135963 -0.217133 0.0607384
8 1 3.49327 13.3822 4.58917 -0.35169 1.17775 0.263841
67 1 1.02115 13.3643 7.48365 -0.907147 -0.796725 0.85731
125 3 3.94162 15.4892 6.53095 0.165127 -0.285993 -0.113189
202 4 1.34768 13.7236 4.55499 -0.6276 0.347268 0.165536
64 1 1.29376 13.2389 11.9475 -0.42323 0.47466 0.985431
100 2 3.37054 15.3018 8.61054 1.43663 0.589875 -0.759864
128 3 1.38009 15.4507 8.75979 -0.391507 -0.10406 -0.83695
65 1 3.17739 13.9133 14.1921 0.0238868 -0.159963 -0.378618
203 4 1.74456 15.3827 12.8078 0.162003 0.418206 0.129121
32 1 5.68394 2.34458 2.49201 0.426697 0.197412 -0.6188
182 3 5.96763 2.99448 0.18131 -0.684856 -0.0493768 1.25777
194 4 5.89136 0.07349 2.66464 0.163326 0.138539 -0.690748
43 1 7.67295 3.28595 5.65429 -0.0379414 0.399467 0.459564
45 1 4.98895 1.37674 5.95282 0.683026 0.482389 0.207764
89 1 7.49726 0.21048 4.15854 0.358543 0.170859 0.253927
145 3 7.54889 1.03373 6.38063 -0.208446 0.143516 -0.0356108
47 1 6.69393 0.48406 8.47266 -0.702227 -0.0352976 -0.375325
91 1 6.31927 3.45865 11.7025 0.0329648 0.127801 0.132908
126 3 4.50035 0.68628 9.58391 -0.571912 -0.090116 0.772632
139 3 6.74917 3.79311 9.38783 -1.17036 -0.460457 0.403636
192 3 7.67207 2.05717 10.1366 0.592811 -0.705208 -0.590499
33 1 7.49839 1.20957 16.2485 -0.173226 0.466445 0.644745
61 1 6.84868 0.21801 12.3775 0.215186 0.561305 -0.034353
74 1 6.06361 3.01562 14.2252 0.469088 -0.0815971 0.354372
184 3 4.23937 2.94709 12.7287 -0.975185 -0.0121647 0.152161
31 1 4.05153 4.52315 0.72945 -0.0662396 -0.238682 -0.115242
34 1 7.0017 4.96235 0.89905 -0.0203534 0.339629 0.0991186
54 1 4.5367 7.76175 3.27334 0.443737 0.164345 -0.0441917
99 2 5.58161 4.70574 3.74925 0.310061 0.0209376 -0.719576
121 3 6.65896 6.5005 3.12974 1.22504 -0.259393 0.533687
49 1 6.04291 6.74216 6.43242 -0.245061 0.566126 -0.319849
122 3 5.53599 4.62155 5.8426 -0.783383 -0.469285 -0.345402
13 1 6.03207 7.82237 9.96967 0.43384 0.259258 0.397138
138 3 7.43587 6.89155 8.4192 1.43363 -0.799381 -0.067933
208 4 4.57568 6.00792 10.5949 0.152267 0.736894 -0.172216
25 1 5.79296 7.87146 14.3943 0.0959272 0.0814796 -0.252947
76 1 4.70362 5.5273 12.7386 -0.223913 -0.275504 0.453122
112 2 7.94498 6.66126 13.7744 0.317566 -0.867275 -0.348763
160 3 5.29574 6.61438 16.3766 -0.249278 -0.383333 0.305868
173 3 7.99779 4.52441 13.14 -0.654066 0.521956 -1.48288
83 1 6.84529 11.5452 3.89823 1.46635 -0.0860324 -0.0621069
108 2 5.45205 8.48522 0.83269 -0.175026 0.658645 -0.544286
16 1 5.73668 10.3665 7.07777 -0.0690374 -0.00345396 -0.347348
111 2 4.22653 10.6724 4.2869 0.321528 -1.09123 0.146583
157 3 5.87428 9.3691 4.56691 -0.975954 0.707263 0.678618
142 3 5.59778 10.367 9.45065 0.00101505 -0.488108 0.318644
179 3 6.99516 11.6748 10.1914 -0.577082 0.350946 0.964026
28 1 6.47818 11.0983 15.0135 0.0236026 -0.423798 0.551908
158 3 7.27646 9.09001 16.3264 -0.410173 -0.00762539 -0.261862
197 4 6.05044 10.1953 13.0494 -0.217838 -0.22716 0.355135
170 3 4.85296 12.2034 3.06528 -0.76012 -0.284695 -0.433916
12 1 5.263 13.4754 6.88833 0.0679517 -0.156091 0.00432996
171 3 7.41753 12.9467 6.09788 -0.285634 -0.0721189 0.0910378
63 1 5.88751 14.4608 10.7043 -0.137966 -0.262649 -0.0939418
66 1 4.97834 12.2072 12.1661 -0.492392 0.611377 0.378697
127 3 4.22488 13.4893 9.09814 -0.265893 -0.288822 1.28025
22 1 7.975 14.485 14.3538 -0.417963 -0.665562 -0.0958334
62 1 5.06345 15.4704 15.2305 0.603069 0.0358336 -1.55943
187 3 5.44513 14.6299 12.9752 -0.238873 -0.0935047 0.597631
146 3 11.2778 1.64945 2.37549 -0.174235 -1.06363 -0.373906
148 3 9.34157 3.80006 3.87645 -0.261798 -0.109747 0.998671
162 3 11.9516 3.43858 1.93356 -0.326744 -0.229673 0.0954491
81 1 11.2743 3.73127 5.207 0.553842 0.322705 -0.647176
95 1 9.42919 1.68364 7.81047 -0.395338 -0.121099 0.148134
105 2 9.7651 1.7702 4.19608 -0.390862 0.0281286 -1.59938
147 3 11.0149 1.32674 5.83415 -0.0121295 0.99111 0.0205005
93 1 9.41061 1.77159 12.0359 -0.286662 -0.108866 -0.00290015
113 3 11.2393 0.81316 9.26267 0.447747 1.27035 -0.777414
39 1 10.135 0.20731 15.2245 -0.67531 0.121686 -0.117861
96 1 10.0095 3.13633 13.9979 -0.703102 -0.420062 0.21337
175 3 8.12916 1.30457 14.1204 0.931057 -0.483693 -1.29488
183 3 11.6619 3.59037 12.4485 0.764647 -0.0815038 -0.18227
35 1 10.3908 6.10596 3.26423 0.393229 0.227704 0.129986
79 1 9.44629 7.04312 6.64126 -0.150685 -0.596307 0.569961
132 3 10.8727 5.12037 7.02988 0.0859647 0.0411783 -0.43999
140 3 9.00937 4.22812 7.4247 1.22626 -0.481817 0.672515
190 3 8.31312 7.00408 4.29306 -0.247382 -0.172474 -0.864487
40 1 9.86152 5.1161 11.5968 -1.41022 -0.837116 0.499022
103 2 8.33387 5.17871 9.26015 -0.884574 0.82853 -0.625338
136 3 10.8738 7.77942 9.17531 -0.301069 -1.3503 0.295461
174 3 11.3345 6.52126 10.751 1.41642 1.02986 -0.663587
42 1 11.9655 5.21766 14.1459 0.361667 0.0731182 0.417002
110 2 10.8584 7.47108 16.1826 -0.526147 0.490729 0.157453
166 3 9.43918 5.94031 15.4226 0.624543 2.48154 0.212134
176 3 8.91512 7.79608 12.3805 -0.763858 -0.99034 1.05359
2 1 9.29928 10.8046 0.09668 0.221806 -0.237626 0.0344706
3 1 10.6345 10.2533 3.30624 0.484765 -0.452567 0.213138
80 1 8.24728 9.15073 1.95182 0.402515 -0.0468732 0.483609
165 3 10.481 8.10973 1.72644 -1.20393 -0.754571 -1.02602
177 3 8.84341 11.4343 2.72611 -0.589831 -0.201193 -1.28914
82 1 8.38042 9.43963 4.9869 -0.0577502 -0.111484 0.38466
87 1 10.4717 10.5173 6.72121 0.409259 0.997366 0.338562
118 3 11.4955 11.9917 4.94786 1.05674 -0.205218 -0.766486
120 3 8.12429 11.1349 6.99547 0.44615 -1.06726 -0.654134
130 3 10.7197 8.38679 5.00559 -0.510875 0.297056 1.08273
98 2 10.0537 11.0603 10.2386 -0.11001 -0.140034 -0.947802
117 3 10.9484 10.9099 12.0854 -0.580145 -0.000689151 -0.787221
137 3 9.35202 9.18591 9.44427 0.262056 -0.0254263 0.308057
17 1 11.4341 8.55392 12.5465 -0.147896 -0.21231 -0.464866
30 1 8.18763 10.3256 12.3592 0.132256 -0.319735 0.051111
168 3 11.1681 9.16609 15.0142 -0.32218 -0.629023 0.379254
1 1 11.0515 13.1999 2.94224 0.366004 0.199056 -0.186575
86 1 8.32539 13.6218 2.02445 -0.477557 0.387818 -0.156513
191 3 9.4179 14.8654 3.91924 -0.207245 0.123447 -0.921198
193 4 8.48438 15.0295 0.05385 0.880507 0.212052 0.37618
5 1 9.27535 12.7084 4.6457 0.0909089 -0.810892 0.991521
88 1 11.2677 14.9307 5.19409 0.193268 0.161317 0.342697
90 1 8.87687 15.0203 6.17818 -0.577396 0.555701 0.568547
114 3 10.6845 14.0565 7.58049 0.308517 -0.107884 -1.03239
14 1 8.4086 12.8256 8.57176 0.50782 1.17082 0.178426
97 2 11.2038 14.9155 9.31932 -0.813648 -0.414346 0.339827
115 3 9.57203 14.1795 10.5239 -0.00882549 0.0320299 0.307578
119 3 8.10193 15.4834 10.2428 -0.887537 0.096442 0.529542
15 1 11.9236 13.5373 12.5973 0.0137578 0.522243 -0.0441874
150 3 10.8983 15.9228 12.812 0.618042 0.108412 0.792901
196 4 8.46032 12.1147 14.6597 -0.117322 0.0220027 -0.142522
37 1 12.8859 1.75065 7.71765 0.418838 -0.198207 -0.0255711
85 1 13.3617 0.77861 4.45301 -0.387805 -0.637369 0.0230593
161 3 13.8606 2.95519 4.65634 -0.201067 1.28201 1.46958
207 4 14.1974 0.47588 6.58339 0.467861 -0.379946 0.577501
46 1 15.7111 3.0666 10.5047 0.464255 0.0958398 -0.76223
72 1 12.2549 1.36099 11.5894 -0.318756 0.621268 -0.299927
199 4 14.1716 3.48932 8.90813 0.166763 0.394452 0.840339
41 1 13.8799 2.91948 13.3969 -0.193552 0.399396 0.341623
106 2 12.5325 0.09978 14.0013 -0.0689842 -1.37669 -0.673158
149 3 12.0714 1.55893 15.3873 0.400461 -1.09122 0.238349
152 3 14.199 0.57733 12.8423 -0.601385 -0.252734 1.03783
52 1 15.4749 6.44263 3.9345 -0.773263 0.0313379 -0.640269
57 1 12.8633 7.46315 1.9828 0.0446583 0.264834 -0.494665
109 2 13.5938 4.14124 3.11633 -0.264152 0.659417 -0.363624
163 3 15.2913 4.23543 2.05739 0.642484 0.53724 -0.0991162
164 3 12.9561 5.98789 3.74063 -0.133947 -0.631992 0.865661
48 1 15.264 5.23104 6.8222 -0.943528 0.70116 0.849865
84 1 12.3346 7.04345 5.86134 -0.0397393 -0.198747 -0.63281
129 3 14.2052 7.41046 7.17257 0.425354 0.076431 -0.831527
38 1 13.2442 4.87447 10.8725 -0.535954 -0.103021 -0.137624
102 2 14.5523 7.05726 11.9436 -0.909261 -0.233289 -0.270995
20 1 14.8361 7.74994 15.9215 0.111332 0.419332 0.374867
133 3 13.807 6.77458 13.8814 0.834509 -0.604989 0.0698673
167 3 12.439 6.30781 16.3617 0.912813 0.0380781 0.683196
59 1 15.1956 10.7224 0.98017 0.649513 -0.993293 -0.759718
154 3 14.6665 9.36647 3.92418 -1.21498 -0.833213 0.338837
186 3 15.412 8.38467 2.1496 0.148034 0.11544 -0.112095
55 1 12.5294 9.79969 5.13192 0.52365 0.00605905 -0.143461
101 2 14.9592 9.04831 6.09688 -0.0905078 0.622321 1.14328
70 1 14.4121 11.8667 8.70116 0.272737 0.235397 -0.641751
92 1 13.1624 8.51343 9.305 0.689202 0.0548753 -0.23062
135 3 13.8431 9.08953 11.4623 -0.804444 -0.000880885 0.588111
206 4 12.4559 10.6623 8.45577 0.261733 0.254254 -0.921376
23 1 15.7677 10.02 12.5232 0.542823 0.739151 -0.0515145
24 1 13.5524 9.20513 14.0202 -0.177811 -0.48384 -0.0886426
180 3 15.5408 9.89567 14.9734 -0.175132 0.509896 0.322194
4 1 13.1869 15.7261 0.44673 0.0933311 0.08435 -0.260572
107 2 14.5299 13.6727 1.93726 1.4057 0.80978 0.00146971
153 3 13.1778 15.0703 2.73073 -0.327925 -1.4492 -0.278543
155 3 15.5162 14.8759 0.34169 -0.540215 -0.421902 0.520876
156 3 13.4286 12.2007 0.8585 -0.293098 0.719368 0.687514
68 1 14.0868 14.6763 7.92176 0.176315 0.781885 -0.0571593
69 1 13.6949 13.0444 4.49369 0.321252 0.18406 0.316967
71 1 12.5837 12.6196 6.93055 -0.299201 -0.17812 0.0393725
188 3 14.8694 13.0288 6.59039 -0.143441 -0.617846 -0.0440394
116 3 12.91 14.1564 10.1463 0.762893 -0.665522 -0.100762
6 1 14.33 12.2669 14.971 0.546813 -1.01476 -0.41226
19 1 15.2396 14.9049 14.294 0.106039 -0.265187 -0.326653
151 3 12.6889 14.236 14.8224 -0.00998903 1.73604 0.01075
204 4 15.1116 12.8654 12.7574 0.101158 0.150003 -0.0317065
ITEM: TIMESTEP
20
ITEM: NUMBER OF ATOMS
208
ITEM: BOX BOUNDS pp pp pp
0.0000000000000000e+00 1.6026081999999999e+01
0.0000000000000000e+00 1.6100000000000001e+01
0.0000000000000000e+00 1.6425367000000001e+01
ITEM: ATOMS id type x y z fx fy fz
7 1 3.80907 0.74945 0.826248 0.107402 -0.678182 -0.241537
36 1 1.27635 2.69763 2.13715 0.532507 0.185552 0.380958
9 1 1.74746 0.0924487 5.93835 -0.261835 0.58847 -0.590469
123 3 1.99109 2.1827 4.34268 -0.087499 -0.469959 0.208844
94 1 3.27107 3.15388 10.6319 0.414197 -0.176984 -0.649624
75 1 2.20689 2.53554 13.6656 -1.20897 0.588871 0.266448
189 3 0.0316487 3.48056 12.9408 0.223546 -0.382549 -0.612334
198 4 2.37738 2.64992 16.3722 0.0757854 0.0667418 0.305047
124 3 3.79746 5.50369 3.01809 -0.556659 -0.386805 -0.376216
51 1 2.92804 4.34235 5.01938 -0.427376 -0.47978 -0.245722
53 1 2.19681 7.69939 5.16924 -0.622797 -1.06401 -0.0232842
60 1 1.73561 6.57819 7.55967 -0.098116 0.989897 -0.754713
185 3 0.939205 5.65627 5.5821 -0.581012 1.45359 0.342848
195 4 3.94554 7.30083 7.11774 -0.172694 0.0480702 -0.745728
21 1 2.6153 7.51637 11.2201 0.666397 -0.581536 -0.0892285
29 1 0.995889 5.07598 11.2389 -0.222534 -0.109425 0.712484
200 4 1.63172 4.0491 9.517 0.184892 0.271474 -0.331967
143 3 0.877517 7.98263 9.37288 0.861411 1.50742 -1.04365
205 4 1.03801 6.81703 15.9946 0.0085177 -0.0331787 0.390231
78 1 3.3522 7.42596 15.6002 -0.436601 -0.00135463 -0.00195541
181 3 3.71714 7.56733 13.3785 0.190898 -0.433101 -0.601864
134 3 0.443554 7.07799 12.4461 1.42689 0.427909 -0.662893
56 1 1.7752 9.33323 1.3837 0.150769 0.0632303 -6.89759e-05
169 3 2.70921 9.48357 3.61679 0.0409059 -0.247415 -0.307483
201 4 1.40548 11.8152 1.08203 0.304998 -0.672157 -0.463459
10 1 3.62962 11.9334 0.923911 0.52311 0.159934 -0.202597
58 1 1.35613 11.3843 4.80932 -0.428058 -0.401729 -0.103553
131 3 1.11515 9.48218 6.39087 -0.462598 0.154083 1.14538
172 3 3.90978 11.422 6.20943 -0.558283 1.55457 -1.22687
18 1 2.55969 11.5507 10.3249 0.602068 0.473943 -0.111824
104 2 1.58899 9.71277 8.48394 1.11525 -0.411845 1.31703
141 3 0.508513 11.403 9.32749 -0.0842291 -1.61446 -0.447263
23 1 0.167766 10.0703 12.2378 -0.924752 0.108321 0.253543
11 1 1.66765 11.1073 14.758 -0.260814 -0.484663 0.569491
26 1 1.26665 8.24122 14.3373 -0.764272 0.0726544 -0.509763
27 1 3.8067 9.79356 13.4023 1.25302 -0.205729 0.0443188
144 3 2.69332 11.5869 12.6683 -0.0581863 0.172947 0.114685
159 3 3.87216 9.83586 16.1234 -0.944758 -0.166397 0.14744
178 3 3.6501 14.4264 0.0364485 -0.293723 -0.0599527 -0.395007
77 1 1.45665 13.9776 0.875817 1.53539 -0.270161 0.753621
8 1 3.37348 13.7371 4.62961 0.412456 -0.546309 -0.229448
67 1 0.660059 13.3499 7.63018 1.4146 0.176901 0.385773
125 3 3.92227 15.5655 6.62966 0.33358 -0.00088744 -0.664107
202 4 1.27314 13.7469 4.52328 -2.32936 -0.563925 -2.23721
64 1 1.39059 13.514 12.2741 -0.479015 -2.03647 -1.16559
100 2 3.35381 15.4527 8.69571 0.248682 -0.563256 -0.995376
128 3 1.34415 15.3612 8.64881 0.24229 -0.7562 -0.202704
65 1 3.376 13.6519 14.1081 -0.0574003 0.508536 0.853721
203 4 1.68813 15.2374 12.7252 -0.294309 1.94344 1.42656
32 1 5.68202 2.7801 2.41305 0.394222 -1.14479 -0.224895
182 3 6.08123 2.92608 0.00827376 -0.247131 0.773721 1.70314
194 4 5.95061 0.205431 2.66257 -0.0234866 1.08899 0.0190059
89 1 7.4544 0.368438 4.08864 0.967663 -0.16261 0.464611
33 1 7.54705 1.21112 0.194181 0.0744298 -0.386851 -0.306712
43 1 7.57526 3.47701 5.89184 0.27013 0.0156766 -0.770834
45 1 5.24312 1.45052 5.56594 0.165464 -0.46583 0.41903
145 3 7.52381 1.14779 6.38589 -0.0543009 0.284377 -0.487961
47 1 6.61235 0.199866 8.28672 -0.160424 1.76588 0.92839
91 1 6.27413 3.65052 11.5195 -0.420275 0.276841 1.87707
126 3 4.48631 0.708253 9.47075 0.923953 0.256821 0.875172
139 3 6.79132 3.78339 9.48241 -0.373694 -0.323456 -0.0714471
192 3 7.59434 2.14904 10.2381 0.352078 -1.72602 -0.648621
44 1 4.07249 0.0753037 11.9907 -0.828438 0.901188 -0.603566
184 3 4.13505 2.81647 12.6953 0.651522 0.756624 -0.178679
61 1 6.9917 0.239215 12.3611 -0.421047 0.556129 0.201434
74 1 5.96269 2.93851 14.1703 0.153131 -0.19413 0.119182
31 1 4.36301 4.24862 0.728281 -0.83543 0.0835104 -0.249842
34 1 6.93233 5.16547 0.877187 0.562664 -0.532117 0.426665
54 1 4.66001 7.80173 3.34242 -0.0924078 -0.329853 0.301353
99 2 5.58038 4.76616 3.7509 0.748561 -0.22458 -0.55016
121 3 6.74765 6.4069 3.07206 0.814108 0.489195 0.833794
160 3 5.321 6.67875 0.0779755 -0.40502 -1.89444 -0.770233
49 1 6.1055 6.73824 6.45832 0.133452 0.222364 -0.0944936
122 3 5.45939 4.62369 5.81493 -0.413758 -0.224665 -0.339826
13 1 5.75731 7.87194 10.05 0.0280721 0.627735 -0.275958
138 3 7.64991 6.90644 8.48303 -2.04208 -0.0153123 -0.487678
208 4 4.40035 6.09704 10.4415 -0.28124 0.0565377 0.276324
25 1 5.86583 7.83381 14.3923 0.920604 0.775151 -0.168228
76 1 4.693 5.42046 12.7991 -0.307082 0.145857 0.111882
83 1 6.92667 11.447 3.91938 -0.541813 0.500596 0.458743
108 2 5.43226 8.4721 0.823318 0.58637 1.97885 1.18463
111 2 4.33619 10.649 4.07749 -0.279834 0.332078 2.72708
16 1 5.50686 10.2702 7.20303 1.15018 -0.263579 -0.359104
157 3 5.87302 9.38236 4.64695 -0.510288 -1.34863 -0.521037
142 3 5.59395 10.3907 9.55978 -0.0841668 -0.934098 -0.707502
179 3 6.90504 11.6821 10.3533 0.700775 0.72288 -0.110609
28 1 6.85018 11.3515 15.0119 -1.11488 -0.809329 -0.488349
158 3 7.16313 9.07308 16.2462 0.309565 -0.0978785 0.0326835
197 4 6.11848 10.2547 12.9808 -0.326015 0.290394 1.56233
170 3 4.85476 12.2262 3.08671 -1.41148 0.766778 -0.119475
12 1 5.27524 13.6271 7.07295 -0.869051 0.251284 -0.113953
171 3 7.32045 12.7621 5.97865 0.0871957 0.554371 0.825955
63 1 6.22036 14.1792 10.5007 -0.872511 -0.183364 0.461504
66 1 4.97247 12.1603 12.2777 0.198396 0.293632 -0.254797
127 3 4.44599 13.4848 9.2368 -2.84054 0.372011 -0.0168105
187 3 5.3909 14.7127 12.9176 0.908623 -1.76517 -0.846652
62 1 5.31674 15.14 14.9934 -0.117001 0.401283 0.988645
146 3 11.156 1.65272 2.37947 0.594361 -0.668244 -0.105731
148 3 9.39623 3.87175 3.96974 -0.929287 4.07303e-05 1.52888
162 3 11.8761 3.46497 1.87435 -0.822124 -0.706973 0.313575
81 1 11.3914 3.77332 5.01247 -0.0150243 0.197131 0.17166
95 1 9.39699 1.69657 7.8681 -0.465072 0.025978 -0.282857
105 2 9.72205 1.7434 4.21777 -0.564969 0.372712 -1.61257
147 3 10.8977 1.39394 5.8304 1.26408 -0.120349 0.381363
93 1 9.29749 1.6554 11.891 -0.399493 -0.165054 0.573978
113 3 11.1625 0.786731 9.26811 0.548601 0.589711 0.0317441
72 1 11.9744 1.71494 11.5555 0.51349 -0.0555221 -0.890231
39 1 9.99145 0.072338 15.4215 0.00892421 0.543963 -0.889164
96 1 10.0397 3.04186 14.0498 0.3332 -0.166225 -0.31141
175 3 8.10295 1.41627 14.1553 0.666742 0.213333 -0.105709
183 3 11.6261 3.76911 12.4425 1.03602 -0.464236 0.169611
149 3 11.9824 1.58108 15.3784 0.588541 -0.215215 0.377648
35 1 10.1305 6.20327 3.1367 0.594247 0.260411 -1.53409
79 1 9.41884 6.7812 6.63997 -0.414394 0.425296 0.558776
132 3 10.8557 5.05999 7.09416 1.05705 -0.576236 -1.38961
140 3 8.9851 4.24448 7.73234 2.48196 -1.73491 -3.32882
190 3 8.4797 6.99938 4.17332 -1.54957 0.797195 0.688641
40 1 9.1722 5.00659 11.2216 1.44148 -0.638603 0.883486
103 2 8.42797 5.18808 9.34872 -2.43598 1.97646 2.33324
136 3 10.813 7.8012 9.04961 1.33125 -0.515485 0.622424
174 3 11.354 6.70693 10.6928 -0.273424 -0.37224 0.303661
176 3 8.92327 7.688 12.4337 0.752177 0.219672 0.725896
110 2 10.701 7.57263 16.1588 1.54057 1.08699 -0.0288345
166 3 9.52496 6.02703 15.5086 -0.951342 -0.276302 -0.141319
112 2 8.14603 6.71446 13.9348 -3.12787 -0.871951 -0.130451
173 3 8.08444 4.52492 13.0743 -1.44807 0.2117 -1.67249
2 1 9.19262 10.8454 0.0353051 0.705097 -0.111338 0.121151
3 1 10.5997 10.1533 3.13583 0.331308 0.477565 0.252271
80 1 8.24115 9.21779 2.07396 0.0425096 -0.896948 -1.0996
165 3 10.3799 8.11212 1.67525 -0.892702 0.101111 0.834488
177 3 8.68794 11.3501 2.80756 0.717645 0.428029 -0.519
82 1 8.42823 9.64821 4.91391 -0.00626254 -0.570409 0.397688
87 1 10.3427 10.9396 6.66876 0.846143 -0.516263 0.461387
118 3 11.4575 11.9121 4.8396 0.846535 -0.293266 -0.00978884
120 3 8.10883 11.1339 7.01213 -0.584572 -0.375058 0.84024
130 3 10.6382 8.41151 5.02669 -0.124049 -0.399179 0.665343
98 2 10.0465 11.0715 10.0583 0.558497 -0.543667 0.806039
117 3 10.9787 10.8836 11.9287 -0.884264 0.0384741 -0.242516
137 3 9.22788 9.26367 9.55465 -0.277681 0.390905 -0.277556
30 1 8.47712 10.2655 12.111 -0.909183 -0.0868308 0.360026
17 1 11.2596 8.60275 12.5225 1.11906 -0.34088 -0.621267
168 3 11.4535 9.07477 15.1051 -1.4441 1.96421 -0.966745
1 1 11.6341 13.0832 3.10948 -0.464112 1.13786 -1.39648
86 1 8.02845 13.9462 2.08449 1.1388 -0.0290833 0.356285
191 3 9.34961 14.825 3.87342 -0.578121 -0.396548 0.769293
193 4 8.52065 15.0886 0.093337 0.484014 0.331554 -0.239556
5 1 9.30095 12.4654 4.85801 0.0828789 1.17464 -1.04463
88 1 11.1486 14.9972 5.41679 -0.362289 -0.138227 -0.481787
90 1 8.6042 15.0967 6.3016 0.0926611 -0.192863 -0.428147
114 3 10.53 14.1624 7.54606 1.20524 -1.20134 0.871162
14 1 8.46144 13.0224 8.78213 0.554195 -0.52282 -0.186345
97 2 11.1489 14.8655 9.44462 0.486464 -0.0966499 -0.53004
115 3 9.71323 14.1496 10.5873 -1.54313 0.795981 0.882883
119 3 8.08656 15.4411 10.3449 -0.767587 0.44941 0.217922
15 1 11.5333 13.7806 12.6332 -0.246824 -0.477879 -0.178584
150 3 10.951 16.0363 12.9804 -0.642764 -0.296637 -1.57074
196 4 8.53123 12.316 14.6669 0.933754 -0.673319 -0.238068
22 1 8.14968 14.2458 14.3132 0.13645 -0.368236 0.273685
37 1 12.899 1.76518 7.89319 0.343478 -0.0880194 -0.074386
85 1 13.3047 0.779641 4.52323 -0.477546 -0.241162 0.0507498
161 3 13.773 3.11677 4.6379 -0.333768 -1.02803 1.95054
207 4 14.3366 0.344829 6.45252 -0.129608 -0.208969 0.949455
50 1 16.0047 3.44075 4.32734 0.898908 0.185951 -0.0341875
46 1 15.7878 2.71427 10.2042 -0.289053 0.974987 0.829056
199 4 14.0709 3.44227 9.05265 -0.663415 -0.534285 0.474491
41 1 13.8028 2.84716 13.3165 0.217945 0.111674 -0.447039
106 2 12.6492 0.0749025 13.9586 -1.16039 -0.122675 1.16086
152 3 14.1034 0.567726 12.7729 0.427072 0.316561 0.0902304
52 1 15.4787 6.24687 3.452 -0.00764891 0.0929911 0.487566
57 1 12.8886 7.6645 1.99939 -0.204918 0.0480919 -0.910951
109 2 13.505 4.20302 3.06892 0.263803 -3.24658 -1.44164
163 3 15.2361 4.20926 2.06619 1.40048 0.20389 -0.876158
164 3 13.0983 5.86344 3.76466 -2.00042 3.21115 0.861119
48 1 15.0524 5.2583 6.83112 0.746742 0.73472 -0.562308
84 1 12.4086 6.85225 5.74671 -0.528694 0.962155 0.797872
129 3 14.3096 7.29482 7.12433 0.506641 0.796462 -0.193588
38 1 13.0928 4.99136 11.0016 0.0443382 -0.59965 -0.134811
102 2 14.4259 7.04546 12.0008 -0.627329 -0.648502 0.142811
20 1 14.6965 7.68381 15.9204 0.459188 0.982193 0.124709
133 3 13.9467 6.62303 13.9955 -0.86781 1.02741 -1.42922
167 3 12.3503 6.54312 16.3252 2.71328 -2.00419 2.02631
73 1 15.892 5.35366 14.1324 0.714768 -0.154296 0.246818
42 1 12.2464 5.13295 14.2183 -0.894313 0.0224455 0.38946
59 1 15.3566 10.618 0.664566 -0.292257 0.510268 0.596765
154 3 14.7014 9.33026 3.86026 0.0451424 -0.0998392 -0.716416
186 3 15.4707 8.32244 2.08188 0.656377 0.527779 -0.246161
55 1 12.6569 9.74536 4.97127 -0.530812 0.289509 0.100705
101 2 15.0018 8.94192 6.39409 1.20628 -0.955988 -0.254167
70 1 14.3653 11.8729 8.69715 0.22059 -0.270713 -0.802782
92 1 13.3376 8.85107 9.30376 0.155121 -1.09058 -0.203804
135 3 13.8583 9.06997 11.412 -0.261332 -0.209337 2.52083
206 4 12.4805 10.6922 8.34057 -0.468911 -0.192916 -0.772342
180 3 15.5892 9.84838 15.0756 -0.635246 -0.342288 -1.94355
24 1 13.4616 9.2475 13.958 1.12529 -0.998504 -0.0137276
4 1 13.3371 15.0791 0.355569 -1.49866 0.197686 0.241532
107 2 14.5422 13.635 1.94423 3.87043 2.19287 3.4354
153 3 13.2447 15.1453 2.61654 -0.115405 -0.773223 1.02411
155 3 15.5846 14.6667 0.447734 0.603159 0.707547 -0.517919
156 3 13.4489 12.3807 0.963504 -0.833403 -2.4294 -0.547746
68 1 14.0777 14.6435 8.0347 -0.199062 1.24218 0.102778
69 1 14.0294 12.8469 4.22361 0.287581 -0.0625629 1.47964
71 1 12.5219 12.4324 6.81979 0.52652 0.779176 -0.0386734
188 3 14.7884 13.1695 6.62413 -1.20996 0.0891978 -1.42856
116 3 12.8187 14.052 10.2968 -0.238624 0.638977 -1.11798
6 1 14.5513 12.1092 14.8868 -0.220576 -0.407288 0.195375
19 1 15.6174 14.6312 14.3792 -0.0394642 0.56177 -0.634583
151 3 12.7164 14.2798 14.7861 0.240827 0.226419 -1.0367
204 4 15.196 12.8432 12.6526 -0.336456 0.707427 0.363789
ITEM: TIMESTEP
40
ITEM: NUMBER OF ATOMS
208
ITEM: BOX BOUNDS pp pp pp
0.0000000000000000e+00 1.6026081999999999e+01
0.0000000000000000e+00 1.6100000000000001e+01
0.0000000000000000e+00 1.6425367000000001e+01
ITEM: ATOMS id type x y z fx fy fz
7 1 3.76945 0.542384 0.777277 0.0986961 -0.0670728 -0.259514
36 1 1.62694 2.8573 2.28349 -0.0136944 0.339064 -0.882197
9 1 1.46385 0.389451 5.70582 0.290481 -0.536297 0.875461
123 3 1.90419 2.20125 4.31069 0.534002 -0.964917 0.456298
50 1 0.202061 3.5175 4.19571 -0.896075 0.448796 0.419443
94 1 3.45389 3.29836 10.3973 0.0418123 -0.210421 0.225026
44 1 3.96699 0.0997504 11.6038 -0.115017 -0.817193 1.22589
200 4 1.50057 4.01273 9.5281 -0.494141 0.105953 0.550997
75 1 2.00876 2.47563 13.5141 0.279377 -0.00407471 0.536294
189 3 0.0713673 3.45473 13.0515 -0.29123 -0.691254 -1.68691
198 4 2.48782 2.61483 16.3327 -0.148748 -0.0673349 0.266906
124 3 3.71366 5.44852 2.98781 0.167515 0.735981 -0.23531
51 1 3.10265 4.18096 5.01236 -0.169459 -0.0948495 0.275191
53 1 1.98505 7.41924 4.89198 -0.302682 1.1491 -0.952492
60 1 1.73768 7.1735 7.19395 -0.116625 -0.480331 0.956136
185 3 0.849911 5.75733 5.61712 0.474045 -0.932553 -1.15704
195 4 3.89886 7.1542 7.12288 1.75148 0.0595228 -0.319143
21 1 2.7616 7.44403 11.1619 -0.338825 -0.498096 0.145383
29 1 0.86454 4.98499 11.2948 0.244896 -0.188185 0.00745995
205 4 1.02541 6.87868 15.8389 -0.204438 0.216274 0.173897
78 1 3.29836 7.45978 15.5814 0.640639 -0.0999785 -0.429316
181 3 3.87829 7.58718 13.2279 -0.502526 -0.0941517 0.961896
134 3 0.446363 6.99727 12.5051 1.60081 0.214717 -1.58782
56 1 1.6781 9.07004 1.58928 -0.14827 0.524418 -0.209423
169 3 2.7162 9.47728 3.58259 0.710979 0.417362 0.0692145
201 4 1.3395 11.6903 1.01581 0.91518 -0.604558 -0.154132
10 1 3.60955 11.6819 1.13993 0.203191 -0.35277 -0.189721
58 1 1.64135 11.3041 4.65872 -0.241826 1.05844 0.229114
131 3 1.19408 9.57769 6.47473 -1.02027 -0.464398 0.136924
172 3 3.95915 11.4232 6.11101 -0.719522 0.470451 -0.869639
18 1 2.52622 12.0126 10.4324 0.292639 -0.482804 -1.12762
104 2 1.7392 9.66987 8.54729 1.13236 1.742 0.0525632
141 3 0.412524 11.1674 9.37137 0.850396 0.724828 0.572909
23 1 0.21744 10.1822 12.1091 -0.699279 -0.0923752 0.327755
143 3 1.02689 8.08681 9.3652 -1.48485 -0.826949 0.160812
11 1 1.7108 10.8999 14.7043 0.0636245 0.446005 0.135106
26 1 1.09501 8.2915 14.1129 0.345804 -0.419171 -0.0847719
159 3 3.81774 9.85544 16.0907 -0.207389 -1.68798 -0.431793
144 3 2.71702 11.5184 12.6224 0.520681 -0.448685 0.678264
77 1 1.74935 13.7544 0.98621 -0.797387 0.627904 -0.158133
8 1 3.34138 13.8477 4.57526 -0.721561 -0.497698 -0.152647
67 1 0.825951 13.3327 7.87927 -0.618859 -0.751178 -1.11109
125 3 3.9285 15.6399 6.64577 -0.148802 0.205671 -1.222
202 4 1.10302 13.7188 4.41105 2.21182 -1.12576 1.9931
64 1 1.28331 13.1235 12.1699 0.218421 1.33265 0.155392
100 2 3.37095 15.5579 8.67086 -1.37529 0.390589 -0.409822
128 3 1.36101 15.2221 8.52361 1.05069 1.12598 0.211058
65 1 3.51769 13.6269 14.3308 -0.659145 0.0802243 -0.943893
203 4 1.59528 15.2146 12.773 -0.144273 -1.08963 0.813341
19 1 0.0129562 14.6201 14.199 0.0638399 0.934357 0.0444317
178 3 3.62308 14.3305 16.4062 0.802386 0.839157 -0.115957
32 1 5.88091 2.68343 2.26572 0.0793305 0.170093 0.615583
33 1 7.5793 1.14662 0.410022 -0.213005 0.103893 -0.23752
194 4 6.02187 0.447742 2.65979 0.93409 0.155359 0.594766
31 1 4.29371 3.99415 0.597512 -0.548372 0.421165 0.0254526
182 3 6.17348 2.93235 0.0309893 0.236803 0.690727 0.932861
43 1 7.56686 3.74707 5.93042 0.0307255 -0.172341 0.639165
45 1 5.56969 1.33005 5.34157 -1.40366 -0.0774428 0.291813
145 3 7.49066 1.28522 6.3451 0.44293 0.280491 -0.0981845
89 1 7.80119 0.435873 4.17382 -0.824735 -0.19793 -0.592512
47 1 6.51371 0.763438 8.48507 0.228534 -0.362165 -0.500369
91 1 6.10132 3.86508 12.0006 0.225603 -0.844749 -1.79839
126 3 4.53629 0.74196 9.44661 -1.0646 -0.500052 -0.595026
139 3 6.78792 3.77567 9.58195 -0.0768627 2.22822 1.15162
192 3 7.54827 2.06596 10.2491 0.079363 0.22199 -0.360256
184 3 4.07358 2.78405 12.6429 0.0342929 1.30167 0.0207351
61 1 6.91886 0.444263 12.4496 -0.350555 -1.18621 0.223099
74 1 5.94981 2.74228 14.2117 0.17067 -0.371405 0.198116
160 3 5.29221 6.5884 0.145836 -0.485391 0.772658 -0.0937619
34 1 7.08209 5.17904 1.04861 -0.50653 0.0917317 -0.211788
54 1 4.8025 7.62553 3.55794 -0.0393658 -0.769107 -0.185476
99 2 5.6595 4.78579 3.68273 -0.400496 -1.27651 -0.0788882
121 3 6.923 6.3667 3.10772 -0.804726 1.0281 0.319977
49 1 6.1724 6.94034 6.41787 -0.591489 -0.623791 -0.128906
122 3 5.35042 4.60412 5.74529 0.940131 0.979618 -0.5471
208 4 4.21007 6.18367 10.3311 1.23925 -0.403601 0.360128
138 3 7.7332 6.84761 8.60191 -1.61453 0.335965 0.382698
76 1 4.41996 5.37491 12.9528 -1.24356 0.312984 -0.0424055
83 1 6.85706 11.5268 4.07283 -0.588983 -0.663595 -0.34129
108 2 5.47369 8.63164 0.903521 0.516708 -1.7421 -1.15998
16 1 5.79036 10.028 7.10838 -0.0224147 0.589619 0.229076
157 3 5.80348 9.27391 4.68633 -0.39492 0.378078 0.109459
111 2 4.41958 10.6517 4.18038 -0.0689223 0.135624 1.42104
142 3 5.57577 10.312 9.59735 -0.154263 0.420615 -0.790816
179 3 6.87831 11.7445 10.5139 0.25732 -0.286866 -0.274081
13 1 5.52505 8.13441 10.114 -0.149126 -1.1717 0.183667
28 1 6.85578 11.3214 14.872 0.032156 0.490887 0.556165
158 3 7.08034 9.05282 16.176 0.982794 1.32294 0.303238
197 4 6.16298 10.3408 13.0642 0.00473596 0.161986 0.444111
27 1 4.22627 9.67998 13.2242 -0.634754 0.683858 0.225026
25 1 6.33128 8.08124 14.2537 -0.801804 -0.775603 -0.14055