ITEM: TIMESTEP
0
ITEM: NUMBER OF ATOMS
208
ITEM: BOX BOUNDS pp pp pp
0.0000000000000000e+00 1.6026081999999999e+01
0.0000000000000000e+00 1.6100000000000001e+01
0.0000000000000000e+00 1.6425367000000001e+01
ITEM: ATOMS id type x y z fx fy fz
7 1 3.8881 0.69455 0.79182 0.00276156 0.209499 0.128376
36 1 1.16169 2.58912 2.09403 0.167744 -0.277875 0.321837
198 4 2.27568 2.69111 0.02067 0.131476 -0.0548085 0.0663506
9 1 1.86208 0.10337 5.91428 -0.465134 0.29094 -0.261285
50 1 0.13519 3.43725 4.51266 0.101833 0.0126414 -0.0317825
123 3 2.06719 2.09147 4.4093 -0.292144 -0.215756 -0.217424
44 1 3.82062 0.31898 12.2038 0.0954994 -0.044131 -0.0831339
94 1 3.24878 2.92708 10.6443 0.232843 -0.212068 0.0299807
75 1 1.97898 2.77401 13.8859 0.354897 -0.0205408 -0.046781
189 3 0.02448 3.46133 12.7506 0.0610581 0.552854 0.442458
124 3 3.81922 5.53389 3.01408 -0.70706 -0.1294 0.183098
51 1 2.64736 4.23863 4.91466 0.660191 0.00339082 -0.133156
53 1 2.22251 7.56936 5.35944 0.241461 0.127334 -0.117829
60 1 1.80248 6.33568 7.73269 0.291703 -0.0227513 -0.11633
185 3 0.96484 5.70143 5.56291 -0.125116 -0.364912 -0.194251
195 4 3.9797 7.44925 7.02577 -0.579347 0.0458197 -0.045878
21 1 2.74828 7.3408 11.2047 0.163667 0.651321 0.196481
29 1 1.04551 5.10279 11.4643 0.097805 -0.281801 0.0968947
134 3 0.59908 7.1985 12.3122 -0.233261 0.0171203 0.69619
143 3 0.79565 8.02117 9.29961 0.240818 -0.142622 0.483871
200 4 1.77087 4.12295 9.47599 -0.334004 0.179349 -0.134112
73 1 0.10427 5.49927 14.3682 -0.225832 -0.103917 -0.370971
78 1 3.23899 7.39809 15.6303 0.208319 -0.108438 0.249813
181 3 3.58042 7.50475 13.4856 0.14105 0.0304483 -0.357124
205 4 1.04076 6.75312 16.167 -0.336515 -0.0306849 0.170187
56 1 1.98736 9.66134 1.27109 -0.0209519 -0.434621 -0.0275154
169 3 2.72343 9.47626 3.61049 -0.380155 -0.0517782 -0.0379302
201 4 1.49419 11.8745 1.10867 -0.142136 -0.166204 0.0596892
58 1 0.86139 11.5253 4.90317 0.0115965 -0.0387201 -0.16844
131 3 0.98885 9.41179 6.39851 0.31449 0.380672 -0.322557
172 3 3.79561 11.5775 6.15313 -0.178027 -0.244465 -0.198691
18 1 2.89604 11.3266 10.1609 0.0937534 0.119301 0.141567
104 2 1.57531 9.72031 8.55298 0.164922 -0.0917958 -0.146971
141 3 0.6114 11.4905 9.24486 0.526394 -0.170213 0.330801
11 1 1.51648 11.1205 14.9988 -0.0344819 0.135468 -0.233243
26 1 1.17167 8.23412 14.3491 0.290172 0.13297 -0.117543
27 1 3.80445 9.83682 13.5665 0.017703 -0.307269 0.184825
144 3 2.67657 11.6555 12.7341 0.279991 -0.0735296 -0.0585357
159 3 3.83083 9.77272 16.1664 0.511361 -0.774527 0.252061
10 1 3.87835 12.1583 0.67928 -0.0153089 -0.00932015 0.15846
77 1 1.65914 14.1746 1.02855 -0.680487 0.0851032 0.407565
178 3 3.6501 14.516 0.05653 0.137203 0.0107641 -0.237613
8 1 3.49327 13.3822 4.58917 0.239521 0.109483 0.34085
67 1 1.02115 13.3643 7.48365 -0.325889 -0.238497 0.105309
125 3 3.94162 15.4892 6.53095 0.4031 0.0321445 0.40037
202 4 1.34768 13.7236 4.55499 -0.38333 0.0183753 -0.312822
64 1 1.29376 13.2389 11.9475 -0.284088 0.395518 -0.217661
100 2 3.37054 15.3018 8.61054 0.766633 0.239941 -0.292904
128 3 1.38009 15.4507 8.75979 -0.129965 -0.08617 -0.0220846
65 1 3.17739 13.9133 14.1921 -0.157174 -0.117716 -0.440263
203 4 1.74456 15.3827 12.8078 0.0435327 0.166306 0.155698
32 1 5.68394 2.34458 2.49201 0.11519 0.213459 -0.368073
182 3 5.96763 2.99448 0.18131 -0.325871 -0.130428 0.673906
194 4 5.89136 0.07349 2.66464 -0.257798 0.0178168 -0.592963
43 1 7.67295 3.28595 5.65429 -0.305517 0.0631746 -0.0360926
45 1 4.98895 1.37674 5.95282 0.36518 0.27462 -0.192659
89 1 7.49726 0.21048 4.15854 0.464596 0.0659932 0.255414
145 3 7.54889 1.03373 6.38063 -0.478147 -0.0394479 0.239876
47 1 6.69393 0.48406 8.47266 0.0545241 0.059769 -0.0803439
91 1 6.31927 3.45865 11.7025 0.0470164 0.0532173 0.214693
126 3 4.50035 0.68628 9.58391 -0.290512 -0.225544 0.640374
139 3 6.74917 3.79311 9.38783 -0.350862 -0.209619 -0.0370318
192 3 7.67207 2.05717 10.1366 0.443257 0.107249 -0.148563
33 1 7.49839 1.20957 16.2485 -0.201452 0.14478 0.495433
61 1 6.84868 0.21801 12.3775 0.117852 0.368503 0.0931303
74 1 6.06361 3.01562 14.2252 0.359176 -0.243658 0.507442
184 3 4.23937 2.94709 12.7287 -0.334572 -0.0399474 0.141018
31 1 4.05153 4.52315 0.72945 0.129754 -0.0887836 -0.235296
34 1 7.0017 4.96235 0.89905 0.00569834 0.107108 -0.11886
54 1 4.5367 7.76175 3.27334 -0.0205103 0.292593 0.0475985
99 2 5.58161 4.70574 3.74925 0.0728469 -0.392686 -0.058597
121 3 6.65896 6.5005 3.12974 0.540812 -0.0075927 -0.363063
49 1 6.04291 6.74216 6.43242 0.152407 0.403001 -0.147857
122 3 5.53599 4.62155 5.8426 -0.344098 -0.712167 -0.528707
13 1 6.03207 7.82237 9.96967 -0.333799 0.210183 0.354145
138 3 7.43587 6.89155 8.4192 0.764662 -0.173225 0.0143027
208 4 4.57568 6.00792 10.5949 0.0733589 0.367555 -0.414363
25 1 5.79296 7.87146 14.3943 0.00232885 0.180238 -0.244229
76 1 4.70362 5.5273 12.7386 -0.333397 -0.320354 0.218911
112 2 7.94498 6.66126 13.7744 0.383547 -0.805235 0.00468669
160 3 5.29574 6.61438 16.3766 -0.0258146 -0.434398 0.113344
173 3 7.99779 4.52441 13.14 -0.167579 0.593234 0.237513
83 1 6.84529 11.5452 3.89823 0.330397 0.117801 0.265966
108 2 5.45205 8.48522 0.83269 -0.595923 0.955408 -0.128124
16 1 5.73668 10.3665 7.07777 0.209702 0.212706 -0.274638
111 2 4.22653 10.6724 4.2869 0.336534 0.0653811 0.412693
157 3 5.87428 9.3691 4.56691 -0.212622 0.318669 0.246385
142 3 5.59778 10.367 9.45065 -0.198594 -0.0484075 0.22719
179 3 6.99516 11.6748 10.1914 -0.162911 0.160531 0.58077
28 1 6.47818 11.0983 15.0135 0.217666 -0.41177 0.639423
158 3 7.27646 9.09001 16.3264 -0.519907 0.284424 -0.0392214
197 4 6.05044 10.1953 13.0494 -0.372325 -0.112895 0.0969881
170 3 4.85296 12.2034 3.06528 -0.55152 -0.0826814 -0.689763
12 1 5.263 13.4754 6.88833 -0.0666645 -0.195593 0.0139115
171 3 7.41753 12.9467 6.09788 -0.376436 0.111083 0.118565
63 1 5.88751 14.4608 10.7043 -0.152496 -0.055655 -0.131568
66 1 4.97834 12.2072 12.1661 0.0488954 0.0742701 0.0216785
127 3 4.22488 13.4893 9.09814 -0.169927 -0.0829501 0.516448
22 1 7.975 14.485 14.3538 -0.106302 0.0670704 -0.490801
62 1 5.06345 15.4704 15.2305 0.882534 0.218078 -0.853418
187 3 5.44513 14.6299 12.9752 0.0897025 -0.0551379 0.430892
146 3 11.2778 1.64945 2.37549 -0.209928 -0.620938 0.695148
148 3 9.34157 3.80006 3.87645 -0.235039 -0.068412 0.7884
162 3 11.9516 3.43858 1.93356 -0.330341 0.172245 -0.594899
81 1 11.2743 3.73127 5.207 0.489144 0.0714203 -0.0672355
95 1 9.42919 1.68364 7.81047 -0.238055 0.0133377 0.0766972
105 2 9.7651 1.7702 4.19608 0.180108 -0.217196 -1.13687
147 3 11.0149 1.32674 5.83415 0.165003 0.124724 -0.180909
93 1 9.41061 1.77159 12.0359 -0.270639 -0.259023 -0.161455
113 3 11.2393 0.81316 9.26267 0.0310857 0.248248 0.186874
39 1 10.135 0.20731 15.2245 -0.422388 -0.0633682 -0.0743174
96 1 10.0095 3.13633 13.9979 -0.342195 0.0348155 0.40679
175 3 8.12916 1.30457 14.1204 0.297865 -0.0618038 -0.74878
183 3 11.6619 3.59037 12.4485 0.221965 -0.0771634 -0.341615
35 1 10.3908 6.10596 3.26423 -0.158369 0.214133 0.0457719
79 1 9.44629 7.04312 6.64126 -0.120293 0.0264988 -0.0308497
132 3 10.8727 5.12037 7.02988 -0.0895219 -0.256995 0.0638387
140 3 9.00937 4.22812 7.4247 0.776212 -0.179402 0.0997886
190 3 8.31312 7.00408 4.29306 0.00503252 0.0872531 0.167835
40 1 9.86152 5.1161 11.5968 -0.403802 -0.491205 0.0674154
103 2 8.33387 5.17871 9.26015 -0.0234948 0.322225 -0.370691
136 3 10.8738 7.77942 9.17531 0.273838 -0.248954 0.00359987
174 3 11.3345 6.52126 10.751 0.628837 0.544741 -0.122642
42 1 11.9655 5.21766 14.1459 0.034068 0.128402 0.026976
110 2 10.8584 7.47108 16.1826 -0.406626 0.458327 0.48089
166 3 9.43918 5.94031 15.4226 0.154601 1.09582 -0.339388
176 3 8.91512 7.79608 12.3805 -0.0682216 -0.138149 0.290067
2 1 9.29928 10.8046 0.09668 0.00237484 -0.0378517 -0.135976
3 1 10.6345 10.2533 3.30624 0.297127 -0.148908 0.127411
80 1 8.24728 9.15073 1.95182 0.0463945 -0.100346 0.482685
165 3 10.481 8.10973 1.72644 -0.282616 -0.538915 -0.808475
177 3 8.84341 11.4343 2.72611 -0.310595 -0.34808 -0.7767
82 1 8.38042 9.43963 4.9869 0.408614 -0.304875 0.155858
87 1 10.4717 10.5173 6.72121 -0.082386 0.0166613 0.129226
118 3 11.4955 11.9917 4.94786 0.575919 -0.0561883 0.00787781
120 3 8.12429 11.1349 6.99547 0.138454 -0.132246 -0.730591
130 3 10.7197 8.38679 5.00559 -0.497729 0.774876 0.299047
98 2 10.0537 11.0603 10.2386 -0.0817581 0.243757 -0.208144
117 3 10.9484 10.9099 12.0854 -0.543456 0.206087 -0.529348
137 3 9.35202 9.18591 9.44427 0.0586587 -0.0852876 0.175597
17 1 11.4341 8.55392 12.5465 -0.0837214 -0.284451 -0.224631
30 1 8.18763 10.3256 12.3592 0.321277 -0.0245518 -0.0461434
168 3 11.1681 9.16609 15.0142 -0.216174 -0.463179 0.321395
1 1 11.0515 13.1999 2.94224 0.0906073 0.153451 -0.216172
86 1 8.32539 13.6218 2.02445 0.00546582 0.496192 -0.0407727
191 3 9.4179 14.8654 3.91924 -0.0269112 -0.0838687 -0.837421
193 4 8.48438 15.0295 0.05385 0.236434 0.0657845 0.396372
5 1 9.27535 12.7084 4.6457 0.0715894 -0.240747 0.32458
88 1 11.2677 14.9307 5.19409 0.280036 0.378349 0.263578
90 1 8.87687 15.0203 6.17818 -0.534135 0.247391 0.33327
114 3 10.6845 14.0565 7.58049 0.211086 -0.0604941 -0.573593
14 1 8.4086 12.8256 8.57176 -0.0413387 0.139225 -0.291428
97 2 11.2038 14.9155 9.31932 0.169771 -0.2008 0.371918
115 3 9.57203 14.1795 10.5239 0.0140677 -0.675756 0.35279
119 3 8.10193 15.4834 10.2428 -0.391495 0.204194 0.246346
15 1 11.9236 13.5373 12.5973 0.00641093 -0.00673979 -0.0610181
150 3 10.8983 15.9228 12.812 -0.114476 -0.366758 -0.245423
196 4 8.46032 12.1147 14.6597 0.21407 0.14352 -0.0290357
37 1 12.8859 1.75065 7.71765 -0.0794258 0.280018 0.0318321
85 1 13.3617 0.77861 4.45301 -0.228832 -0.551533 -0.253349
161 3 13.8606 2.95519 4.65634 -0.135754 0.317778 0.712596
207 4 14.1974 0.47588 6.58339 0.266168 -0.173014 0.214067
46 1 15.7111 3.0666 10.5047 0.299552 -0.11419 -0.365201
72 1 12.2549 1.36099 11.5894 -0.0403869 0.318088 -0.391095
199 4 14.1716 3.48932 8.90813 -0.176525 0.246329 0.152928
41 1 13.8799 2.91948 13.3969 -0.0619701 0.159233 0.0582423
106 2 12.5325 0.09978 14.0013 0.290444 -0.366956 -0.0562583
149 3 12.0714 1.55893 15.3873 0.459085 -0.199219 0.300785
152 3 14.199 0.57733 12.8423 -0.223914 -0.0691963 0.372799
52 1 15.4749 6.44263 3.9345 -0.307018 0.274365 -0.317935
57 1 12.8633 7.46315 1.9828 0.47851 0.289099 -0.272919
109 2 13.5938 4.14124 3.11633 0.0676561 0.0703247 -0.0566308
163 3 15.2913 4.23543 2.05739 0.552423 0.426458 -0.18922
164 3 12.9561 5.98789 3.74063 0.189143 0.0431364 0.112149
48 1 15.264 5.23104 6.8222 -0.60399 0.243256 0.421915
84 1 12.3346 7.04345 5.86134 -0.362886 -0.591699 -0.0885329
129 3 14.2052 7.41046 7.17257 0.249244 -0.132712 -0.162072
38 1 13.2442 4.87447 10.8725 -0.321358 -0.14592 0.0334003
102 2 14.5523 7.05726 11.9436 -0.482584 0.303934 -0.27725
20 1 14.8361 7.74994 15.9215 0.157261 0.0388763 0.295403
133 3 13.807 6.77458 13.8814 0.188709 -0.300567 0.151084
167 3 12.439 6.30781 16.3617 0.672311 -0.16163 0.0486633
59 1 15.1956 10.7224 0.98017 0.320742 -0.435018 -0.151029
154 3 14.6665 9.36647 3.92418 -0.230102 -0.395736 0.190731
186 3 15.412 8.38467 2.1496 -0.112055 -0.028564 0.235983
55 1 12.5294 9.79969 5.13192 0.427215 0.0090854 -0.136479
101 2 14.9592 9.04831 6.09688 -0.410943 0.558719 0.166235
70 1 14.4121 11.8667 8.70116 0.054789 0.0541571 -0.172337
92 1 13.1624 8.51343 9.305 0.268008 0.113035 -0.380419
135 3 13.8431 9.08953 11.4623 -0.158097 -0.65511 0.549586
206 4 12.4559 10.6623 8.45577 -0.0286707 0.12283 -0.701328
23 1 15.7677 10.02 12.5232 0.0394617 0.143302 -0.0469243
24 1 13.5524 9.20513 14.0202 -0.101816 -0.060988 -0.119324
180 3 15.5408 9.89567 14.9734 0.255724 0.15013 0.190822
4 1 13.1869 15.7261 0.44673 -0.0873385 0.167323 -0.393615
107 2 14.5299 13.6727 1.93726 0.850746 0.0851655 -0.727013
153 3 13.1778 15.0703 2.73073 -0.602045 -0.43288 0.495481
155 3 15.5162 14.8759 0.34169 -0.345613 -0.339316 0.479624
156 3 13.4286 12.2007 0.8585 -0.23246 0.0986098 0.175673
68 1 14.0868 14.6763 7.92176 0.0580574 0.227033 0.0523519
69 1 13.6949 13.0444 4.49369 0.167668 0.180219 0.159854
71 1 12.5837 12.6196 6.93055 -0.209429 -0.279828 -0.121461
188 3 14.8694 13.0288 6.59039 -0.469796 -0.286821 0.0500445
116 3 12.91 14.1564 10.1463 -0.0804069 0.0181773 -0.00497332
6 1 14.33 12.2669 14.971 0.123077 -0.16434 -0.0352513
19 1 15.2396 14.9049 14.294 -0.0278266 0.0179491 -0.187017
151 3 12.6889 14.236 14.8224 -0.218571 0.842913 0.00892004
204 4 15.1116 12.8654 12.7574 0.108234 -0.0553107 0.176568
ITEM: TIMESTEP
20
ITEM: NUMBER OF ATOMS
208
ITEM: BOX BOUNDS pp pp pp
0.0000000000000000e+00 1.6026081999999999e+01
0.0000000000000000e+00 1.6100000000000001e+01
0.0000000000000000e+00 1.6425367000000001e+01
ITEM: ATOMS id type x y z fx fy fz
7 1 3.8396 0.777307 0.772493 -0.0401532 -0.35027 -0.180152
36 1 1.12451 2.61074 2.06084 0.522389 -0.134725 0.139799
123 3 1.98028 2.20293 4.33636 -0.137102 0.05279 -0.0680062
94 1 3.20849 3.04349 10.7174 0.156829 -0.338693 -0.224401
75 1 2.23195 2.68888 13.8467 -0.823593 0.213694 0.160229
189 3 0.0213204 3.49405 12.9386 0.0472451 0.104347 -0.520772
198 4 2.37254 2.64176 16.3595 -0.0559582 0.0115356 0.188218
124 3 3.84257 5.54541 3.00788 -0.333697 -0.0945638 -0.270798
51 1 2.90324 4.40612 5.08913 -0.296191 -0.187824 -0.212677
53 1 2.11542 7.74779 5.29598 0.263634 -1.28892 -0.263084
60 1 1.78298 6.48374 7.62258 -0.0185419 -0.129362 -0.389014
185 3 0.940795 5.61111 5.55922 -0.262923 0.117547 -0.304758
195 4 3.96224 7.33705 7.14524 -0.0821449 0.243237 -0.116269
21 1 2.6136 7.53147 11.2499 0.0953847 0.116126 0.000798451
29 1 0.993844 5.08887 11.2972 -0.0489651 -0.134929 0.545274
200 4 1.6267 4.0287 9.50987 -0.363565 -0.111686 -0.563417
143 3 0.874321 7.93218 9.35789 0.448649 0.517912 -0.00293318
134 3 0.422012 7.0828 12.4645 0.427145 0.447442 -0.111684
78 1 3.40047 7.36217 15.5764 -0.191561 -0.0491911 0.508749
181 3 3.69035 7.56017 13.368 0.134625 -0.43688 -0.29338
205 4 1.0392 6.83515 16.0176 0.0978896 0.125854 0.0382634
56 1 1.61771 9.20505 1.3336 0.486149 -0.17118 -0.236924
169 3 2.70221 9.50077 3.61247 0.142874 0.115291 -0.35374
201 4 1.41896 11.8235 1.09912 -0.15529 0.0941132 -0.0785124
10 1 3.59092 11.9416 0.831713 0.25018 0.191546 -0.116067
58 1 1.31612 11.3814 4.81595 -0.100259 0.554059 -0.168235
131 3 1.09443 9.43917 6.39881 -0.422464 -0.0485694 0.33618
172 3 3.89326 11.3907 6.22441 0.0809055 0.597396 -1.59394
18 1 2.54685 11.4469 10.1759 0.813679 0.103637 0.307444
104 2 1.58368 9.72162 8.46104 -0.0626123 0.0660741 1.36629
141 3 0.53288 11.4582 9.34135 0.139221 -0.594058 -0.773232
23 1 0.0451012 9.92402 12.2894 -0.148657 -0.246329 0.242432
11 1 1.65699 11.136 14.7726 -0.27107 0.00789756 0.0198385
26 1 1.33911 8.26142 14.3731 -0.194118 0.058505 -0.235025
27 1 3.82765 9.82911 13.5235 0.782628 0.103751 0.471473
144 3 2.69702 11.595 12.6765 0.047506 0.0607893 -0.256166
159 3 3.92003 9.7919 16.1517 -0.141795 -0.379729 0.270641
178 3 3.67661 14.4526 0.0202339 -0.128808 0.0925378 -0.138188
77 1 1.52546 13.988 0.906963 0.737022 -0.0750744 0.578397
8 1 3.41636 13.6419 4.67817 0.536364 -0.154494 0.117201
67 1 0.665001 13.3452 7.4641 0.90233 -0.293168 0.440626
125 3 3.94086 15.5841 6.67422 0.355531 0.0970298 0.0946189
202 4 1.29989 13.7504 4.5172 -0.305016 0.132724 0.0102468
9 1 1.79629 16.0256 5.98931 -0.337184 -0.00267231 -0.302164
64 1 1.46745 13.5634 12.0492 -0.215223 -0.291427 -0.579626
100 2 3.33969 15.425 8.71364 1.2827 -1.39578 -0.752547
128 3 1.35664 15.3746 8.6909 -0.35813 -0.282295 0.211113
65 1 3.32772 13.6382 14.0345 -0.0514592 0.40449 0.208047
203 4 1.69141 15.2186 12.7146 -0.00940247 0.463096 0.372873
32 1 5.62471 2.7499 2.43127 0.305524 -1.02039 -0.375156
33 1 7.51611 1.18804 0.2141 0.160563 -0.222779 -0.124906
194 4 5.93212 0.184093 2.65632 -0.531735 0.412295 -0.413152
89 1 7.40754 0.365421 4.05041 0.861753 -0.147313 0.546207
43 1 7.5089 3.37612 5.78688 0.42717 0.12591 -0.0275276
45 1 5.16973 1.47733 5.53194 -0.0245894 -0.356301 0.489009
145 3 7.50913 1.13495 6.4032 -0.499956 -0.49703 -0.232185
44 1 4.09919 0.103816 12.119 -0.735125 0.67463 -0.281201
91 1 6.232 3.60398 11.4896 -0.30628 0.203352 1.65878
126 3 4.46581 0.703206 9.44427 0.267756 0.45049 0.406892
139 3 6.832 3.81354 9.4552 -0.362872 -0.0216407 -1.00872
192 3 7.58768 2.20901 10.2773 0.47208 -0.984828 -0.108842
184 3 4.15629 2.79951 12.7024 0.531053 0.196167 -0.0580638
61 1 7.05602 0.109783 12.4175 -0.243199 0.47533 0.314953
74 1 6.00784 2.89756 14.1602 0.491546 -0.119599 0.129775
182 3 6.09497 2.91534 16.3983 -0.342311 0.718564 1.2391
31 1 4.37575 4.33111 0.718973 -0.885533 -0.0905735 -0.493014
34 1 6.91664 5.19362 0.781687 0.286143 -0.296865 -0.0991298
54 1 4.57104 7.86258 3.26967 -0.17052 0.180803 -0.332186
99 2 5.56033 4.74237 3.79414 0.355084 0.00385943 -0.573629
121 3 6.70425 6.42602 3.0225 0.568613 0.406455 0.330148
160 3 5.33068 6.69217 0.0794891 -0.467771 -1.12103 -0.649142
49 1 6.16593 6.69343 6.53872 0.162236 0.320791 0.220805
122 3 5.48204 4.61829 5.81074 -0.275432 -0.493607 0.220842
13 1 5.57716 7.7152 9.95007 0.592573 0.763855 -0.511221
138 3 7.62733 6.94828 8.47883 -0.386367 -0.206307 0.514119
208 4 4.40597 6.09645 10.4126 -0.409733 -0.284234 0.18055
25 1 5.75295 7.77828 14.4422 0.292613 0.255627 -0.0171115
76 1 4.65743 5.43241 12.7479 -0.097465 0.0683252 0.0237675
83 1 6.79596 11.4312 3.89096 0.113444 0.429828 0.520393
108 2 5.39471 8.47008 0.808123 -0.112677 1.37185 0.461035
111 2 4.34077 10.6785 4.09603 -0.603155 -0.140226 2.24699
16 1 5.48866 10.3504 7.27368 0.773747 -0.337299 -0.361574
157 3 5.91818 9.39076 4.64575 0.0853646 -0.352258 -0.173036
142 3 5.592 10.4233 9.58683 0.080686 -0.241595 0.439584
179 3 6.92003 11.6671 10.347 0.527215 0.652941 0.525713
66 1 5.05217 12.0683 12.2165 0.0940541 0.131907 -0.0481987
28 1 6.8576 11.2924 15.1256 -1.03524 -0.745031 -0.0239878
158 3 7.14781 9.12408 16.2364 0.738742 0.388619 0.258344
197 4 6.12742 10.2504 12.9507 0.0553911 -0.3234 0.202182
170 3 4.87836 12.2221 3.05584 -1.12205 0.429246 -0.694246
12 1 5.33986 13.6037 7.04161 -0.321785 0.072909 0.130705
171 3 7.31343 12.7696 5.97507 -0.125409 0.182607 0.288789
63 1 6.2948 14.2603 10.5249 -0.661604 -0.615338 0.550862
127 3 4.46978 13.4958 9.19422 -1.37301 0.771865 -0.135796
47 1 6.71364 16.0185 8.24286 -0.182733 0.156077 -0.122942
187 3 5.40554 14.7314 12.9211 0.710684 -1.12102 -0.211177
62 1 5.35567 15.1539 15.1396 0.541586 0.373817 0.465457
146 3 11.1307 1.68494 2.44729 0.110718 -0.521586 0.524493
148 3 9.41022 3.85173 3.94152 -0.578765 -0.687352 0.827638
162 3 11.893 3.51203 1.815 -0.417105 0.0588358 -0.374259
81 1 11.3915 3.6894 5.16661 0.0782834 -0.185511 0.212639
95 1 9.47983 1.63271 7.86101 -0.412439 0.252513 -0.176109
105 2 9.74691 1.72073 4.25871 -0.452507 0.24321 -1.39607
147 3 10.8875 1.35888 5.8162 0.565339 -0.129159 0.17973
93 1 9.33755 1.63154 11.7958 -0.119829 -0.208395 0.295226
113 3 11.1368 0.730035 9.32736 0.0968461 0.476858 0.511815
72 1 12.0093 1.59935 11.572 0.138906 0.0446834 -0.60012
149 3 11.9877 1.62542 15.3807 0.754407 -0.610127 -0.146945
96 1 10.037 3.13748 14.1197 -0.000257608 -0.209869 0.193144
175 3 8.0714 1.42059 14.1799 -0.0326458 -0.144012 -0.247717
183 3 11.5764 3.77763 12.43 0.172225 -0.285525 -0.510227
35 1 10.0201 6.15324 3.26359 0.701561 0.281535 -0.594141
79 1 9.4301 6.85706 6.43849 -0.0305898 0.377 0.117723
132 3 10.8293 5.06408 7.14316 0.135083 -0.0107252 -0.129317
140 3 8.93768 4.27568 7.74851 0.929181 -0.110758 -0.929121
190 3 8.50772 7.00037 4.21507 -0.879297 0.795577 0.444074
40 1 9.31477 4.95713 11.3995 1.12052 0.275857 0.709052
103 2 8.4995 5.18416 9.30282 -0.928036 0.922497 -0.894406
136 3 10.8223 7.86577 9.0253 0.503258 -0.0257793 0.642655
174 3 11.3205 6.69217 10.7005 -0.419662 -0.35506 -0.0835527
176 3 8.94863 7.73274 12.3708 0.065716 -0.0713067 0.256982
110 2 10.7859 7.53524 16.2218 0.48026 0.492925 0.136521
166 3 9.53544 5.97362 15.4888 0.217971 0.699377 -0.728589
112 2 8.14274 6.68741 13.9068 -0.663898 -0.810212 -0.800368
173 3 8.13739 4.54117 13.1764 -0.709054 0.564752 0.370108
2 1 9.08756 10.8964 0.0693566 0.275929 -0.0865876 0.443312
3 1 10.4937 10.1942 3.11062 0.775163 0.171208 0.269575
80 1 8.13814 9.29711 2.17902 -0.464846 -1.12581 -0.683864
165 3 10.4228 8.11716 1.66203 -0.392919 -0.0889132 0.271775
177 3 8.69259 11.3365 2.83112 -0.0925714 0.666111 -0.714453
82 1 8.48736 9.59494 4.83356 -0.354101 -0.735101 0.499489
87 1 10.2297 10.7853 6.64667 0.802797 -0.540881 0.118479
118 3 11.4507 11.9295 4.87027 1.27954 0.0988354 0.363394
120 3 8.10817 11.1786 6.97842 -0.496877 0.0364893 -0.241718
130 3 10.6414 8.44422 4.98592 -0.183543 0.179331 0.43044
98 2 10.0518 11.1062 10.0768 0.684139 0.112297 0.259393
117 3 10.9863 10.8923 11.9392 -0.18335 0.412752 -0.235448
137 3 9.23231 9.26526 9.56522 -0.235016 0.00674955 -0.106065
30 1 8.52404 10.3567 12.0636 -0.543817 -0.0214983 0.0259806
17 1 11.2961 8.60325 12.5591 0.462091 -0.477696 -0.757943
168 3 11.4422 9.07035 15.1114 -1.28719 0.101019 -0.455581
1 1 11.5374 13.0349 3.13824 -0.227822 0.78054 -0.829188
86 1 8.03541 13.9777 2.07196 0.634284 -0.0631873 0.136283
191 3 9.38004 14.826 3.86244 0.0631149 -0.257598 0.329986
193 4 8.4804 15.0767 0.0970139 -0.303197 -0.118316 -0.141057
5 1 9.23501 12.5049 4.7651 -0.12848 0.632538 -0.474097
88 1 11.1657 15.0619 5.43859 -0.169336 0.0779301 -0.192053
90 1 8.63333 15.0632 6.27787 0.04306 0.103297 -0.240455
114 3 10.5042 14.1853 7.56347 0.350245 -0.698222 -0.00211708
14 1 8.28676 12.852 8.70117 -0.292224 -0.105635 -0.208858
97 2 11.1937 14.8816 9.43173 0.184328 -0.219903 -0.672957
115 3 9.72 14.0909 10.5887 -0.91222 -0.843863 0.2536
119 3 8.12705 15.4392 10.3362 0.580513 0.805322 -0.176789
15 1 11.5713 13.7203 12.6604 0.297675 -0.231662 -0.0914318
150 3 10.9261 16.0167 12.9348 0.0254773 0.0231305 -0.320257
196 4 8.546 12.3091 14.665 0.42144 -0.181253 -0.0863746
22 1 8.22357 14.4982 14.1639 0.229582 0.0647626 -0.0337774
39 1 10.1014 16.0954 15.4872 0.255706 0.239722 -0.455332
37 1 12.7794 1.83712 7.8724 0.0577939 -0.418607 -0.0876046
85 1 13.372 0.787182 4.46311 -0.294799 -0.112567 -0.0417248
161 3 13.7733 3.08348 4.56855 -0.582693 -0.580198 1.12568
207 4 14.3234 0.362282 6.43477 0.0399449 -0.235681 0.471068
50 1 15.9305 3.44284 4.313 1.21827 0.155352 0.250932
46 1 15.7469 2.6182 10.2661 0.296137 0.139178 0.298539
199 4 14.0593 3.44572 9.0186 -0.0917504 0.367464 0.132237
41 1 13.8131 2.79567 13.285 0.113948 0.480206 0.145446
106 2 12.6781 0.117755 13.9796 -0.873337 -0.150938 0.59655
152 3 14.122 0.575656 12.733 0.0958187 -0.00788732 -0.120159
52 1 15.5889 6.31539 3.48719 0.248413 0.0751529 0.242153
57 1 13.0184 7.7035 2.13874 0.0932705 0.177681 -0.183824
109 2 13.5173 4.23512 3.11527 -0.330359 -0.744938 -0.806406
163 3 15.1989 4.20704 2.08349 0.880079 0.45136 -0.646212
164 3 13.139 5.83985 3.69505 -0.698961 1.13091 0.027948
48 1 15.1056 5.07197 6.8036 0.279656 -0.0968326 0.224777
84 1 12.3714 6.71383 5.8413 -0.33152 0.341528 0.071171
129 3 14.3102 7.26846 7.15216 0.647101 0.12361 0.0826404
38 1 13.2164 4.95796 11.0213 -0.324384 -0.227864 0.188711
102 2 14.4449 7.08527 11.9982 -0.26959 -0.324905 -0.223413
20 1 14.8037 7.51927 15.9358 0.508538 0.51912 0.640053
133 3 13.9267 6.61464 14.0085 -0.526318 0.503009 -0.52923
167 3 12.2505 6.571 16.2648 0.888412 -0.675355 0.770689
42 1 12.2832 5.12056 14.1202 -0.432731 -0.14198 0.244758
73 1 15.9431 5.44796 14.231 0.415276 -0.458487 -0.0132519
59 1 15.304 10.7066 0.802062 -0.373754 0.201638 0.0739423
154 3 14.7452 9.33772 3.89669 -0.550375 -0.72717 0.819843
186 3 15.4462 8.30514 2.10957 -0.0031613 0.0462368 0.475304
55 1 12.632 9.7617 5.01655 -0.0590815 0.0477206 0.0261841
101 2 14.9715 8.98707 6.31211 -0.754969 0.672283 -1.5819
70 1 14.2708 11.8549 8.8316 -0.0172196 0.175339 -0.150593
92 1 13.1609 8.91832 9.34427 -0.557666 -0.691006 0.334461
135 3 13.9078 9.04444 11.3805 0.324807 0.11844 1.33296
206 4 12.4705 10.6921 8.36154 -0.975344 0.381646 0.0419876
180 3 15.6307 9.82752 15.0918 -0.0934006 0.0734036 -0.794006
24 1 13.477 9.42912 13.8953 0.849701 -0.122577 -0.150229
4 1 13.3672 15.1372 0.24289 -0.554668 0.831125 -0.0270139
107 2 14.4674 13.5543 1.84898 0.88587 0.133336 0.681806
153 3 13.2389 15.1941 2.63832 -0.317665 -0.685212 0.244628
155 3 15.5778 14.6719 0.454472 -0.00979283 0.232575 -0.863599
156 3 13.4652 12.3854 0.953496 -0.261358 -0.807448 -0.214911
68 1 14.0609 14.518 8.03876 -0.319637 0.979086 0.392382
69 1 13.9674 12.7977 4.17972 0.120418 0.0302683 0.860738
71 1 12.5207 12.3902 6.85099 0.315503 0.594554 -0.125165
188 3 14.7901 13.1793 6.65519 -1.13389 -0.797002 -0.802871
116 3 12.7754 14.0766 10.3113 0.130545 -0.0109086 -0.194907
6 1 14.4589 12.3392 14.9348 -0.187564 -0.268437 0.0560065
19 1 15.5736 14.666 14.3737 0.160133 0.347205 -0.335569
151 3 12.7039 14.2285 14.7903 0.181056 0.460756 -0.377494
204 4 15.1793 12.818 12.665 -0.762511 0.278615 0.511836
ITEM: TIMESTEP
40
ITEM: NUMBER OF ATOMS
208
ITEM: BOX BOUNDS pp pp pp
0.0000000000000000e+00 1.6026081999999999e+01
0.0000000000000000e+00 1.6100000000000001e+01
0.0000000000000000e+00 1.6425367000000001e+01
ITEM: ATOMS id type x y z fx fy fz
7 1 3.76599 0.669954 0.684898 0.292517 -0.441299 -0.0462729
36 1 1.33431 2.55819 2.0669 -0.00101799 -0.0252995 -0.531857
123 3 1.89173 2.31075 4.25957 0.894166 -0.485939 0.311684
50 1 0.193377 3.5588 4.26273 -0.396244 0.273483 0.471045
94 1 3.24053 2.98382 10.6832 -0.136186 -0.147139 -0.20462
200 4 1.44699 3.9235 9.49496 -0.0812335 -0.372569 0.156354
75 1 2.17469 2.67755 13.8685 -0.299022 -0.301369 -0.106922
189 3 0.0190517 3.53693 13.0665 -0.375464 -0.312715 -0.715174
198 4 2.46618 2.5929 16.291 -0.122776 0.0199011 0.136004
124 3 3.81935 5.55225 2.97938 -0.20828 0.246178 -0.0250689
51 1 3.0346 4.47422 5.14306 -0.428188 -0.157594 -0.206946
53 1 2.14394 7.40388 5.10077 -0.0624701 0.639022 -0.176564
60 1 1.71943 6.59003 7.3443 -0.704573 0.238847 0.394994
185 3 0.886985 5.52911 5.52082 -0.157373 -0.0963084 -0.159129
195 4 3.9355 7.24869 7.24455 0.402821 -0.0640705 -0.171139
21 1 2.59435 7.73428 11.2805 0.39143 -0.266403 0.108696
29 1 0.908606 4.99699 11.3988 0.0291711 0.125271 0.186033
143 3 0.987433 7.89861 9.41925 -0.977642 0.663575 -0.475175
134 3 0.288304 7.01498 12.6183 0.761158 0.280526 -0.499991
78 1 3.47722 7.2894 15.7174 -0.295978 0.0285198 -0.44066
181 3 3.8187 7.57511 13.2352 0.292944 0.0954363 0.990018
205 4 1.04685 6.93201 15.8707 0.564452 -0.0164786 0.211479
56 1 1.46042 8.64779 1.25885 0.730315 0.529212 -0.205789
169 3 2.69371 9.53128 3.57516 0.357912 -0.219008 -0.216502
201 4 1.32788 11.7768 1.08051 -0.135509 -0.0271792 -0.314888
10 1 3.42719 11.8096 0.945307 0.450204 -0.0943462 -0.405619
58 1 1.648 11.468 4.69908 -0.367717 -0.203421 0.319722
131 3 1.15963 9.45791 6.42405 -0.57665 -0.630121 -0.0192001
172 3 3.99541 11.266 6.12527 -0.173429 0.710706 -0.6967
18 1 2.59378 11.64 10.3102 0.429764 -0.0942116 -0.339811
104 2 1.58617 9.72289 8.51327 0.13057 -0.619323 0.611226
141 3 0.475715 11.3613 9.36059 0.125291 -0.383879 -0.536999
23 1 0.222614 9.71455 12.1592 -0.344898 -0.179559 0.208971
11 1 1.67091 11.1809 14.596 -0.142493 -0.0131904 0.864811
26 1 1.43773 8.31615 14.2835 -0.110127 -0.243958 -0.418368
159 3 3.99324 9.76425 16.1608 -0.567314 0.0517225 -0.547487
144 3 2.73722 11.5359 12.594 0.742208 -0.120489 0.189175
77 1 1.69509 13.8102 1.05479 0.239542 0.439255 -0.0842627
8 1 3.57613 13.8223 4.83985 -0.173606 -0.189002 -0.168523
67 1 0.691194 13.1949 7.64219 -0.0922202 0.314024 -0.0403417
125 3 3.98157 15.6899 6.82241 -0.00967265 -0.0185962 -0.98915
202 4 1.22772 13.7947 4.47527 0.314227 0.244678 0.211748
9 1 1.55098 15.851 5.92925 0.208165 -0.250367 0.172757
64 1 1.52221 13.7683 11.9017 0.128632 0.00776277 0.247481
100 2 3.44735 15.3972 8.73511 -0.166116 -0.771304 -0.134245
128 3 1.30792 15.2706 8.64566 0.871452 -0.308141 0.0399471
65 1 3.46893 13.5407 13.9424 0.205944 0.370743 0.232395
203 4 1.63756 15.1005 12.6569 -0.0354807 0.212748 -0.00948108
178 3 3.69997 14.397 16.3944 0.28744 0.072645 -0.100108
32 1 5.71463 2.69393 2.20315 0.165457 -0.412897 0.360404
33 1 7.57202 1.12595 0.552783 -0.225377 0.264611 0.138143
194 4 5.92746 0.33837 2.60552 0.3345 0.389952 0.137602
43 1 7.52544 3.51864 5.92941 0.179967 -0.240516 -0.0844586
45 1 5.35247 1.4178 5.31182 -0.381166 -0.129229 0.201527
145 3 7.41265 1.18183 6.40831 -0.221594 -0.672385 0.0121096
89 1 7.70287 0.446807 4.16583 -0.607869 -0.259624 -0.500009
44 1 4.05226 0.186588 11.8991 -0.233039 0.251274 0.0904624
91 1 6.13371 3.80596 11.9346 0.927864 -0.424146 -0.839488
126 3 4.44754 0.770872 9.35674 -0.0287898 0.943726 0.368884
139 3 6.86336 3.82361 9.44252 -1.06651 0.177269 0.919178
192 3 7.55092 2.26792 10.4079 -0.332409 -0.29009 0.0866378
184 3 4.12706 2.66962 12.6749 0.826267 0.115067 0.135515
61 1 7.11484 0.257014 12.5749 -0.653653 -0.00184575 -0.545158
74 1 6.17076 2.70543 14.1687 -0.171804 0.106359 0.00370564
182 3 6.19003 2.90737 16.3322 -0.0308154 0.500043 1.03489
31 1 4.29687 4.12944 0.480157 -0.500343 0.236961 -0.35356
34 1 6.95132 5.26923 0.623504 0.316218 -0.51133 0.192972
54 1 4.5287 8.01765 3.16876 0.00738491 -0.475486 0.218477
99 2 5.58274 4.77045 3.77098 0.280566 -0.208766 -0.780256
121 3 6.80821 6.38188 2.94977 -0.0408235 -0.23971 0.66965
160 3 5.31614 6.64299 0.134763 -0.332996 -0.659621 -0.838565
49 1 6.32868 6.77431 6.68454 -0.592096 -0.274255 -0.493528
122 3 5.4036 4.56571 5.79227 0.533878 0.640328 -0.0820227
13 1 5.36876 7.93587 9.70855 0.29754 0.40524 0.0923588
138 3 7.78006 7.00457 8.5734 -0.415544 0.610278 -0.301653
208 4 4.2023 6.15653 10.2571 0.49611 -0.401782 0.558908
25 1 5.83844 7.77179 14.4748 0.0855618 -0.132956 0.092591
76 1 4.48072 5.4015 12.7964 -0.576676 0.577221 0.0548262
83 1 6.84794 11.5209 4.09537 -0.0896913 0.110719 -0.129722
108 2 5.33434 8.61569 0.836212 0.735539 0.274694 0.382605
80 1 7.85372 9.01112 2.13919 0.040466 0.199565 0.0219273
16 1 5.61807 10.2398 7.29173 0.616388 -0.0322417 -0.149835
157 3 5.95507 9.3742 4.70643 -0.601903 -0.480498 -0.276548
111 2 4.39438 10.6709 4.15728 -0.232913 -0.010935 1.06739
142 3 5.59116 10.4401 9.76601 -0.0917972 -0.552623 -0.0355416
179 3 6.90537 11.7214 10.5576 0.942579 -0.07827 -0.212735
66 1 5.15165 12.0085 12.247 -0.536361 0.331927 -0.0721856