INPUT data for lammps

208 atoms
4 atom types
0.0 16.026082 xlo xhi
0.0 16.1 ylo yhi
0.0 16.425367 zlo zhi

Masses

1 6.941
2 30.973
3 32.06
4 35.453

Atoms

1 1 11.05153 13.1999 2.94224
2 1 9.29928 10.80461 0.09668
3 1 10.63451 10.25326 3.30624
4 1 13.18689 15.72605 0.44673
5 1 9.27535 12.70845 4.6457
6 1 14.32998 12.26691 14.97102
7 1 3.8881 0.69455 0.79182
8 1 3.49327 13.38216 4.58917
9 1 1.86208 0.10337 5.91428
10 1 3.87835 12.1583 0.67928
11 1 1.51648 11.1205 14.9988
12 1 5.263 13.47538 6.88833
13 1 6.03207 7.82237 9.96967
14 1 8.4086 12.82557 8.57176
15 1 11.92363 13.53732 12.5973
16 1 5.73668 10.36648 7.07777
17 1 11.43409 8.55392 12.54652
18 1 2.89604 11.32658 10.16087
19 1 15.23963 14.90491 14.29404
20 1 14.8361 7.74994 15.92148
21 1 2.74828 7.3408 11.20471
22 1 7.975 14.48499 14.35384
23 1 15.7677 10.01996 12.52317
24 1 13.55242 9.20513 14.02017
25 1 5.79296 7.87146 14.39431
26 1 1.17167 8.23412 14.34915
27 1 3.80445 9.83682 13.56647
28 1 6.47818 11.09829 15.01345
29 1 1.04551 5.10279 11.46426
30 1 8.18763 10.32557 12.35923
31 1 4.05153 4.52315 0.72945
32 1 5.68394 2.34458 2.49201
33 1 7.49839 1.20957 16.24846
34 1 7.0017 4.96235 0.89905
35 1 10.39077 6.10596 3.26423
36 1 1.16169 2.58912 2.09403
37 1 12.88591 1.75065 7.71765
38 1 13.24418 4.87447 10.87249
39 1 10.13503 0.20731 15.2245
40 1 9.86152 5.1161 11.59677
41 1 13.87987 2.91948 13.39689
42 1 11.96549 5.21766 14.14591
43 1 7.67295 3.28595 5.65429
44 1 3.82062 0.31898 12.20382
45 1 4.98895 1.37674 5.95282
46 1 15.71105 3.0666 10.50474
47 1 6.69393 0.48406 8.47266
48 1 15.26396 5.23104 6.8222
49 1 6.04291 6.74216 6.43242
50 1 0.13519 3.43725 4.51266
51 1 2.64736 4.23863 4.91466
52 1 15.4749 6.44263 3.9345
53 1 2.22251 7.56936 5.35944
54 1 4.5367 7.76175 3.27334
55 1 12.52943 9.79969 5.13192
56 1 1.98736 9.66134 1.27109
57 1 12.86329 7.46315 1.9828
58 1 0.86139 11.52527 4.90317
59 1 15.1956 10.72235 0.98017
60 1 1.80248 6.33568 7.73269
61 1 6.84868 0.21801 12.37752
62 1 5.06345 15.47037 15.23055
63 1 5.88751 14.46076 10.70427
64 1 1.29376 13.23894 11.94747
65 1 3.17739 13.91328 14.19215
66 1 4.97834 12.20716 12.16606
67 1 1.02115 13.36435 7.48365
68 1 14.0868 14.67631 7.92176
69 1 13.69494 13.04437 4.49369
70 1 14.41205 11.86668 8.70116
71 1 12.58371 12.6196 6.93055
72 1 12.25493 1.36099 11.58936
73 1 0.10427 5.49927 14.36821
74 1 6.06361 3.01562 14.22516
75 1 1.97898 2.77401 13.88594
76 1 4.70362 5.5273 12.73863
77 1 1.65914 14.17461 1.02855
78 1 3.23899 7.39809 15.63033
79 1 9.44629 7.04312 6.64126
80 1 8.24728 9.15073 1.95182
81 1 11.27428 3.73127 5.207
82 1 8.38042 9.43963 4.9869
83 1 6.84529 11.54521 3.89823
84 1 12.33461 7.04345 5.86134
85 1 13.36173 0.77861 4.45301
86 1 8.32539 13.62181 2.02445
87 1 10.47167 10.51728 6.72121
88 1 11.26766 14.9307 5.19409
89 1 7.49726 0.21048 4.15854
90 1 8.87687 15.02028 6.17818
91 1 6.31927 3.45865 11.70246
92 1 13.16237 8.51343 9.305
93 1 9.41061 1.77159 12.03592
94 1 3.24878 2.92708 10.64427
95 1 9.42919 1.68364 7.81047
96 1 10.0095 3.13633 13.99795
97 2 11.2038 14.91552 9.31932
98 2 10.05367 11.06028 10.23856
99 2 5.58161 4.70574 3.74925
100 2 3.37054 15.30179 8.61054
101 2 14.95918 9.04831 6.09688
102 2 14.55226 7.05726 11.94364
103 2 8.33387 5.17871 9.26015
104 2 1.57531 9.72031 8.55298
105 2 9.7651 1.7702 4.19608
106 2 12.53247 0.09978 14.00134
107 2 14.52989 13.67267 1.93726
108 2 5.45205 8.48522 0.83269
109 2 13.59383 4.14124 3.11633
110 2 10.85845 7.47108 16.18259
111 2 4.22653 10.67239 4.2869
112 2 7.94498 6.66126 13.7744
113 3 11.2393 0.81316 9.26267
114 3 10.68447 14.05653 7.58049
115 3 9.57203 14.17952 10.52395
116 3 12.90998 14.15642 10.14633
117 3 10.94836 10.90991 12.08537
118 3 11.49555 11.99175 4.94786
119 3 8.10193 15.48336 10.2428
120 3 8.12429 11.13491 6.99547
121 3 6.65896 6.5005 3.12974
122 3 5.53599 4.62155 5.8426
123 3 2.06719 2.09147 4.4093
124 3 3.81922 5.53389 3.01408
125 3 3.94162 15.48916 6.53095
126 3 4.50035 0.68628 9.58391
127 3 4.22488 13.48935 9.09814
128 3 1.38009 15.45068 8.75979
129 3 14.20522 7.41046 7.17257
130 3 10.71972 8.38679 5.00559
131 3 0.98885 9.41179 6.39851
132 3 10.87267 5.12037 7.02988
133 3 13.80704 6.77458 13.88136
134 3 0.59908 7.1985 12.31215
135 3 13.84311 9.08953 11.4623
136 3 10.87383 7.77942 9.17531
137 3 9.35202 9.18591 9.44427
138 3 7.43587 6.89155 8.4192
139 3 6.74917 3.79311 9.38783
140 3 9.00937 4.22812 7.4247
141 3 0.6114 11.49046 9.24486
142 3 5.59778 10.36702 9.45065
143 3 0.79565 8.02117 9.29961
144 3 2.67657 11.6555 12.73408
145 3 7.54889 1.03373 6.38063
146 3 11.27784 1.64945 2.37549
147 3 11.01493 1.32674 5.83415
148 3 9.34157 3.80006 3.87645
149 3 12.07139 1.55893 15.38732
150 3 10.89833 15.92279 12.81198
151 3 12.68894 14.23599 14.82237
152 3 14.19896 0.57733 12.84234
153 3 13.17782 15.07035 2.73073
154 3 14.66648 9.36647 3.92418
155 3 15.5162 14.87586 0.34169
156 3 13.42858 12.20074 0.8585
157 3 5.87428 9.3691 4.56691
158 3 7.27646 9.09001 16.32641
159 3 3.83083 9.77272 16.16636
160 3 5.29574 6.61438 16.37657
161 3 13.86063 2.95519 4.65634
162 3 11.95163 3.43858 1.93356
163 3 15.29129 4.23543 2.05739
164 3 12.95611 5.98789 3.74063
165 3 10.48097 8.10973 1.72644
166 3 9.43918 5.94031 15.42264
167 3 12.43903 6.30781 16.36166
168 3 11.1681 9.16609 15.01421
169 3 2.72343 9.47626 3.61049
170 3 4.85296 12.20341 3.06528
171 3 7.41753 12.94673 6.09788
172 3 3.79561 11.57747 6.15313
173 3 7.99779 4.52441 13.14004
174 3 11.33446 6.52126 10.75104
175 3 8.12916 1.30457 14.12045
176 3 8.91512 7.79608 12.38051
177 3 8.84341 11.43427 2.72611
178 3 3.6501 14.51603 0.05653
179 3 6.99516 11.67483 10.19138
180 3 15.54077 9.89567 14.97344
181 3 3.58042 7.50475 13.48559
182 3 5.96763 2.99448 0.18131
183 3 11.66189 3.59037 12.44851
184 3 4.23937 2.94709 12.72867
185 3 0.96484 5.70143 5.56291
186 3 15.41197 8.38467 2.1496
187 3 5.44513 14.6299 12.97521
188 3 14.86935 13.02876 6.59039
189 3 0.02448 3.46133 12.75061
190 3 8.31312 7.00408 4.29306
191 3 9.4179 14.86542 3.91924
192 3 7.67207 2.05717 10.13664
193 4 8.48438 15.02947 0.05385
194 4 5.89136 0.07349 2.66464
195 4 3.9797 7.44925 7.02577
196 4 8.46032 12.11473 14.65971
197 4 6.05044 10.19532 13.04937
198 4 2.27568 2.69111 0.02067
199 4 14.17161 3.48932 8.90813
200 4 1.77087 4.12295 9.47599
201 4 1.49419 11.87452 1.10867
202 4 1.34768 13.72357 4.55499
203 4 1.74456 15.38267 12.80781
204 4 15.1116 12.86541 12.75738
205 4 1.04076 6.75312 16.16696
206 4 12.45593 10.66228 8.45577
207 4 14.19735 0.47588 6.58339
208 4 4.57568 6.00792 10.5949
