LAMMPS (9 Oct 2020)
OMP_NUM_THREADS environment is not set. Defaulting to 1 thread. (../comm.cpp:94)
  using 1 OpenMP thread(s) per MPI task
# Test of GAP potential for Si system

units		metal
boundary	p p p

atom_style	atomic

read_data	lammpsdata
Reading data file ...
  orthogonal box = (0.0000000 0.0000000 0.0000000) to (16.026082 16.100000 16.425367)
  4 by 4 by 4 MPI processor grid
  reading atoms ...
  208 atoms
  read_data CPU = 0.003 seconds
group	 	g_Li id 1
1 atoms in group g_Li
group 		g_P id 2
1 atoms in group g_P
group		g_S id 3
1 atoms in group g_S
group       g_Cl id 4
1 atoms in group g_Cl

pair_style	quip
pair_coeff	* * ../gap/GAP.xml "Potential xml_label=GAP_2022_10_4_-300_13_21_0_695" 3 15 16 17

neighbor	0.3 bin
neigh_modify	delay 10

thermo		1
timestep	0.001
thermo_style	custom step temp pe ke etotal

dump		d1 all custom 20 dump id type x y z fx fy fz

variable poteng equal pe
variable kineng equal ke
variable toteng equal etotal
variable temper equal temp
variable stepnum equal step
fix pots all print 1 "${stepnum} ${temper} ${poteng} ${kineng} ${toteng}" file energy3 title "Step Temp PotEng (eV) KinEng (eV) TotEng (eV)"

velocity all create 1000 825577 dist gaussian

fix 1 all nvt temp 1000 1000 0.1
run 60
Neighbor list info ...
  update every 1 steps, delay 10 steps, check yes
  max neighbors/atom: 2000, page size: 100000
  master list distance cutoff = 4.3
  ghost atom cutoff = 4.3
  binsize = 2.15, bins = 8 8 8
  1 neighbor lists, perpetual/occasional/extra = 1 0 0
  (1) pair quip, perpetual
      attributes: full, newton on
      pair build: full/bin/atomonly
      stencil: full/bin/3d
      bin: standard
0 1000 -829.311514994284 26.756850015 -802.554664979284
Per MPI rank memory allocation (min/avg/max) = 3.208 | 4.193 | 4.209 Mbytes
Step Temp PotEng KinEng TotEng 
       0         1000   -829.31151     26.75685   -802.55466 
1 997.365383525509 -829.24148419886 26.686355977145 -802.555128221715
       1    997.36538   -829.24148    26.686356   -802.55513 
2 992.995063062353 -829.126579303719 26.5694199679949 -802.557159335725
       2    992.99506   -829.12658     26.56942   -802.55716 
3 986.527608181475 -828.953477097057 26.3963712477684 -802.557105849289
       3    986.52761   -828.95348    26.396371   -802.55711 
4 978.018352435027 -828.724748629366 26.1686903680214 -802.556058261344
       4    978.01835   -828.72475     26.16869   -802.55606 
5 967.863163579502 -828.452267953897 25.8969695029402 -802.555298450957
       5    967.86316   -828.45227     25.89697    -802.5553 
6 956.424461731886 -828.145200186802 25.5909058732372 -802.554294313565
       6    956.42446    -828.1452    25.590906   -802.55429 
7 944.037362253401 -827.812917483309 25.2594661103705 -802.553451372938
       7    944.03736   -827.81292    25.259466   -802.55345 
8 930.86609526719 -827.460208854705 24.9070444951129 -802.553164359592
       8     930.8661   -827.46021    24.907044   -802.55316 
9 916.877775492458 -827.08501662766 24.5327611209385 -802.552255506721
       9    916.87778   -827.08502    24.532761   -802.55226 
10 902.067800263805 -826.687483360791 24.1364928350196 -802.550990525771
      10     902.0678   -826.68748    24.136493   -802.55099 
11 886.527710363656 -826.269192467642 23.7206889803417 -802.5485034873
      11    886.52771   -826.26919    23.720689    -802.5485 
12 870.746656742085 -825.843478269489 23.2984376955107 -802.545040573978
      12    870.74666   -825.84348    23.298438   -802.54504 
13 855.603485133537 -825.433306994578 22.8932541240293 -802.540052870548
      13    855.60349   -825.43331    22.893254   -802.54005 
14 841.908751079152 -825.062817250951 22.5268261789409 -802.53599107201
      14    841.90875   -825.06282    22.526826   -802.53599 
15 830.250929022943 -824.745026327707 22.2148995826813 -802.530126745026
      15    830.25093   -824.74503      22.2149   -802.53013 
16 820.807399151847 -824.488968153609 21.9622204703082 -802.526747683301
      16     820.8074   -824.48897     21.96222   -802.52675 
17 813.292055433542 -824.282591677361 21.7611335456263 -802.521458131735
      17    813.29206   -824.28259    21.761134   -802.52146 
18 807.227379793148 -824.114123548786 21.5988619291267 -802.51526161966
      18    807.22738   -824.11412    21.598862   -802.51526 
19 802.329866800338 -823.975840549452 21.4678199085316 -802.508020640921
      19    802.32987   -823.97584     21.46782   -802.50802 
20 798.621153161795 -823.867773520448 21.3685864139565 -802.499187106491
      20    798.62115   -823.86777    21.368586   -802.49919 
21 796.239760369878 -823.795582971294 21.3048678441964 -802.490715127098
      21    796.23976   -823.79558    21.304868   -802.49072 
22 795.333140586838 -823.759825818123 21.2806095546409 -802.479216263482
      22    795.33314   -823.75983     21.28061   -802.47922 
23 796.187898593841 -823.771818047958 21.3034801864334 -802.468337861525
      23     796.1879   -823.77182     21.30348   -802.46834 
24 799.097119725245 -823.837559362654 21.3813217799069 -802.456237582747
      24    799.09712   -823.83756    21.381322   -802.45624 
25 804.214998198478 -823.961971496102 21.5182600866102 -802.443711409492
      25      804.215   -823.96197     21.51826   -802.44371 
26 811.539352485448 -824.144690849302 21.7142367357234 -802.430454113578
      26    811.53935   -824.14469    21.714237   -802.43045 
27 820.953906764082 -824.381868541109 21.9661405525148 -802.415727988594
      27    820.95391   -824.38187    21.966141   -802.41573 
28 832.396325789843 -824.673173966704 22.2723036421959 -802.400870324508
      28    832.39633   -824.67317    22.272304   -802.40087 
29 845.746622486173 -825.014016768694 22.6295155285554 -802.384501240139
      29    845.74662   -825.01402    22.629516    -802.3845 
30 860.786576597572 -825.399177593558 23.0319373249466 -802.367240268612
      30    860.78658   -825.39918    23.031937   -802.36724 
31 877.18666341138 -825.820523541556 23.4707519880566 -802.349771553499
      31    877.18666   -825.82052    23.470752   -802.34977 
32 894.368483515706 -826.262031998219 23.9304833715728 -802.331548626646
      32    894.36848   -826.26203    23.930483   -802.33155 
33 911.398452429533 -826.699918585719 24.3861516955601 -802.313766890159
      33    911.39845   -826.69992    24.386152   -802.31377 
34 927.127382016732 -827.101068577098 24.8070083054213 -802.294060271676
      34    927.12738   -827.10107    24.807008   -802.29406 
35 940.455459895236 -827.437466208575 25.1636256862047 -802.27384052237
      35    940.45546   -827.43747    25.163626   -802.27384 
36 950.514648494155 -827.684238204768 25.4327778868186 -802.25146031795
      36    950.51465   -827.68424    25.432778   -802.25146 
37 956.856013833765 -827.830144195343 25.6024528481008 -802.227691347242
      37    956.85601   -827.83014    25.602453   -802.22769 
38 959.772993693855 -827.882105130907 25.680502040714 -802.201603090193
      38    959.77299   -827.88211    25.680502    -802.2016 
39 960.274247673506 -827.868980408781 25.693914018267 -802.175066390514
      39    960.27425   -827.86898    25.693914   -802.17507 
40 959.677174180618 -827.825638182959 25.6779382123698 -802.147699970589
      40    959.67717   -827.82564    25.677938    -802.1477 
41 959.36716839567 -827.790428108039 25.6696434340782 -802.120784673961
      41    959.36717   -827.79043    25.669643   -802.12078 
42 960.540598625648 -827.794955296879 25.7010407307448 -802.093914566135
      42 48 1022.00884739962 -829.286188469531 27.3457374438747 -801.940451025657
      48    1022.0088   -829.28619    27.345737   -801.94045 
49 1038.191248834 -829.693018036238 27.7787275319368 -801.914290504301
      49    1038.1912   -829.69302    27.778728   -801.91429 
50 1054.01135140714 -830.090255104585 28.2020236437084 -801.888231460877
      50    1054.0114   -830.09026    28.202024   -801.88823 
51 1068.64528543565 -830.453622857611 28.5935816216386 -801.860041235972
      51    1068.6453   -830.45362    28.593582   -801.86004 
52 1081.778527565 -830.775993525744 28.9449858115042 -801.83100771424
      52    1081.7785   -830.77599    28.944986   -801.83101 
53 1093.42518998969 -831.059889361158 29.2801.96633 
48 1022.00884739962 -829.286188469531 27.3457374438747 -801.940451025657
      48    1022.0088   -829.28619    27.345737   -801.94045 
49 1038.191248834 -829.693018036238 27.7787275319368 -801.914290504301
      49    1038.1912   -829.69302    27.778728   -801.91429 
50 1054.01135140714 -830.090255104585 28.2020236437084 -801.888231460877
      50    1054.0114   -830.09026    28.202024   -801.88823 
51 1068.64528543565 -830.453622857611 28.5935816216386 -801.860041235972
      51    1068.6453   -830.45362    28.593582   -801.86004 
52 1081.778527565 -830.775993525744 28.9449858115042 -801.83100771424
      52    1081.7785   -830.77599    28.944986   -801.83101 
53 1093.42518998969 -831.059889361158 29.256613811177 -801.803275549981
      53    1093.4252   -831.05989    29.256614   -801.80328 
54 1103.65531525128 -831.305143533408 29.5303397384361 -801.774803794972
      54    1103.6553   -831.30514     29.53034    -801.7748 
55 1112.68631746322 -831.520589466718 29.7719809101059 -801.748608556612
      55    1112.6863   -831.52059    29.771981   -801.74861 
56 1120.48483558292 -831.702728462128 29.9806446897742 -801.722083772354
      56    1120.4848   -831.70273    29.980645   -801.72208 
57 1126.67793413252 -831.842417806028 30.1463524987938 -801.696065307234
      57    1126.6779   -831.84242    30.146352   -801.69607 
58 1131.07033961246 -831.933794438414 30.2638794334257 -801.669915004988
      58    1131.0703   -831.93379    30.263879   -801.66992 
59 1133.68502755447 -831.977880889382 30.333840246526 -801.644040642856
      59     1133.685   -831.97788     30.33384   -801.64404 
60 1134.71771048938 -831.980528217499 30.3614715889286 -801.619056628571
      60    1134.7177   -831.98053    30.361472   -801.61906 
Loop time of 0.938879 on 64 procs for 60 steps with 208 atoms

Performance: 5.521 ns/day, 4.347 hours/ns, 63.906 timesteps/s
90.8% CPU use with 64 MPI tasks x 1 OpenMP threads

MPI task timing breakdown:
Section |  min time  |  avg time  |  max time  |%varavg| %total
---------------------------------------------------------------
Pair    | 0.00045032 | 0.70104    | 0.88484    |  12.7 | 74.67
Neigh   | 3.1689e-05 | 7.0947e-05 | 9.6384e-05 |   0.0 |  0.01
CoTotal wall time: 0:00:01
011    | 0.86681    |  23.0 | 21.31
Output  | 0.0086871  | 0.017423   | 0.0177     |   0.8 |  1.86
Modify  | 0.0044626  | 0.01952    | 0.073561   |  13.6 |  2.08
Other   |            | 0.0007111  |            |       |  0.08

Nlocal:        3.25000 ave           6 max           0 min
Histogram: 1 3 0 12 0 23 17 0 4 4
Nghost:        95.5625 ave         107 max          88 min
Histogram: 3 7 15 8 8 11 7 2 1 2
Neighs:        0.00000 ave           0 max           0 min
Histogram: 64 0 0 0 0 0 0 0 0 0
FullNghs:      52.0938 ave         101 max           0 min
Histogram: 1 3 4 11 14 10 7 9 2 3

Total # of neighbors = 3334
Ave neighs/atom = 16.028846
Neighbor list builds = 6
Dangerous builds = 6
unfix 1
Total wall time: 0:00:01
