LAMMPS (9 Oct 2020)
OMP_NUM_THREADS environment is not set. Defaulting to 1 thread. (../comm.cpp:94)
  using 1 OpenMP thread(s) per MPI task
# Test of GAP potential for Si system

units		metal
boundary	p p p

atom_style	atomic

read_data	lammpsdata
Reading data file ...
  orthogonal box = (0.0000000 0.0000000 0.0000000) to (16.026082 16.100000 16.425367)
  4 by 4 by 4 MPI processor grid
  reading atoms ...
  208 atoms
  read_data CPU = 0.044 seconds
group	 	g_Li id 1
1 atoms in group g_Li
group 		g_P id 2
1 atoms in group g_P
group		g_S id 3
1 atoms in group g_S
group       g_Cl id 4
1 atoms in group g_Cl

pair_style	quip
pair_coeff	* * ../gap/GAP.xml "Potential xml_label=GAP_2022_10_4_-300_11_38_19_644" 3 15 16 17

neighbor	0.3 bin
neigh_modify	delay 10

thermo		1
timestep	0.001
thermo_style	custom step temp pe ke etotal

dump		d1 all custom 20 dump id type x y z fx fy fz

variable poteng equal pe
variable kineng equal ke
variable toteng equal etotal
variable temper equal temp
variable stepnum equal step
fix pots all print 1 "${stepnum} ${temper} ${poteng} ${kineng} ${toteng}" file energy1 title "Step Temp PotEng (eV) KinEng (eV) TotEng (eV)"

velocity all create 1000 825577 dist gaussian

fix 1 all nvt temp 1000 1000 0.1
run 60
Neighbor list info ...
  update every 1 steps, delay 10 steps, check yes
  max neighbors/atom: 2000, page size: 100000
  master list distance cutoff = 4.3
  ghost atom cutoff = 4.3
  binsize = 2.15, bins = 8 8 8
  1 neighbor lists, perpetual/occasional/extra = 1 0 0
  (1) pair quip, perpetual
      attributes: full, newton on
      pair build: full/bin/atomonly
      stencil: full/bin/3d
      bin: standard
0 1000 -829.461411620963 26.756850015 -802.704561605963
Per MPI rank memory allocation (min/avg/max) = 3.208 | 4.193 | 4.209 Mbytes
Step Temp PotEng KinEng TotEng 
       0         1000   -829.46141     26.75685   -802.70456 
1 995.735200527548 -829.346863630356 26.6427374151716 -802.704126215185
       1     995.7352   -829.34686    26.642737   -802.70413 
2 988.220407712728 -829.145936012757 26.4416652309316 -802.704270781826
       2    988.22041   -829.14594    26.441665   -802.70427 
3 977.614943667417 -828.861538606837 26.1578964201318 -802.703642186705
       3    977.61494   -828.86154    26.157896   -802.70364 
4 964.195995299718 -828.501461744149 25.7988476312982 -802.70261411285
       4      964.196   -828.50146    25.798848   -802.70261 
5 948.325901891221 -828.075813038973 25.374213922243 -802.70159911673
       5     948.3259   -828.07581    25.374214    -802.7016 
6 930.391318419467 -827.594821121278 24.8943409622078 -802.70048015907
       6    930.39132   -827.59482    24.894341   -802.70048 
7 910.790547724984 -827.068492151369 24.3698860805571 -802.698606070812
       7    910.79055   -827.06849    24.369886   -802.69861 
8 889.964442005105 -826.509002467081 23.8126450934138 -802.696357373667
       8    889.96444     -826.509    23.812645   -802.69636 
9 868.39709553058 -825.929229065805 23.2355708385734 -802.693658227231
       9     868.3971   -825.92923    23.235571   -802.69366 
10 846.50208594742 -825.340582824487 22.6497293510798 -802.690853473407
      10    846.50209   -825.34058    22.649729   -802.69085 
11 824.580884795481 -824.750626815708 22.0631870597087 -802.687439755999
      11    824.58088   -824.75063    22.063187   -802.68744 
12 802.879777446626 -824.16576467994 21.482533785216 -802.683230894724
      12    802.87978   -824.16576    21.482534   -802.68323 
13 781.696276891535 -823.594025794348 20.9157300380707 -802.678295756277
      13    781.69628   -823.59403     20.91573    -802.6783 
14 761.39177359968 -823.044570078492 20.3724454888615 -802.67212458963
      14    761.39177   -823.04457    20.372445   -802.67212 
15 742.323248807825 -822.527720099527 19.8622318309985 -802.665488268528
      15    742.32325   -822.52772    19.862232   -802.66549 
16 724.8143032889 -822.051690744673 19.3937476018278 -802.657943142846
      16     724.8143   -822.05169    19.393748   -802.65794 
17 709.111307076862 -821.6234981914 18.9735848873962 -802.649913304004
      17    709.11131    -821.6235    18.973585   -802.64991 
18 695.322687333368 -821.245697839059 18.6046448570057 -802.641052982053
      18    695.32269    -821.2457    18.604645   -802.64105 
19 683.473064326381 -820.918926668651 18.2875862714734 -802.631340397178
      19    683.47306   -820.91893    18.287586   -802.63134 
20 673.526348944636 -820.64216158667 18.0214434998622 -802.620718086808
      20    673.52635   -820.64216    18.021443   -802.62072 
21 665.384744999942 -820.412672226273 17.8035998242325 -802.609072402041
      21    665.38474   -820.41267      17.8036   -802.60907 
22 658.922387167261 -820.22721831042 17.6306874849602 -802.59653082546
      22    658.92239   -820.22722    17.630687   -802.59653 
23 653.994319943257 -820.081536251459 17.4988279293837 -802.582708322075
      23    653.99432   -820.08154    17.498828   -802.58271 
24 650.442976990816 -819.971596675084 17.4038051786534 -802.567791496431
      24    650.44298    -819.9716    17.403805   -802.56779 
25 648.102146253769 -819.893085463073 17.3411719217117 -802.551913541361
      25    648.10215   -819.89309    17.341172   -802.55191 
26 646.750360988479 -819.839954068682 17.3050024061158 -802.534951662566
      26    646.75036   -819.83995    17.305002   -802.53495 
27 646.100489999247 -819.804350415013 17.2876139055279 -802.516736509485
      27    646.10049   -819.80435    17.287614   -802.51674 
28 645.892910777485 -819.779047236914 17.2820597394249 -802.496987497489
      28    645.89291   -819.77905     17.28206   -802.49699 
29 645.946369634198 -819.759185945699 17.283490130036 -802.475695815663
      29    645.94637   -819.75919     17.28349    -802.4757 
30 646.149490134228 -819.742193661656 17.2889249947903 -802.453268666865
      30    646.14949   -819.74219    17.288925   -802.45327 
31 646.424839122183 -819.725696555377 17.2962924663627 -802.429404089015
      31    646.42484    -819.7257    17.296292    -802.4294 
32 646.753067500271 -819.709098112434 17.3050748238459 -802.404023288588
      32    646.75307    -819.7091    17.305075   -802.40402 
33 647.199923909794 -819.694504873059 17.3170312937738 -802.377473579285
      33    647.19992    -819.6945    17.317031   -802.37747 
34 647.860469924078 -819.684407314295 17.334705424406 -802.349701889889
      34    647.86047   -819.68441    17.334705    -802.3497 
35 648.790385113272 -819.680430372243 17.3595870256499 -802.320843346594
      35    648.79039   -819.68043    17.359587   -802.32084 
36 650.010347975741 -819.683007588776 17.3922293889849 -802.290778199791
      36    650.01035   -819.68301    17.392229   -802.29078 
37 651.472910735103 -819.690935181777 17.4313629613746 -802.259572220403
      37    651.47291   -819.69094    17.431363   -802.25957 
38 653.081614375497 -819.701169777542 17.4744068033992 -802.226762974143
      38    653.08161   -819.70117    17.474407   -802.22676 
39 654.780438010538 -819.712813895801 17.519861972604 -802.192951923197
      39    654.78044   -819.71281    17.519862   -802.19295 
40 656.515557734772 -819.724272953357 17.5662883108234 -802.157984642533
      40    656.51556   -819.72427    17.566288   -802.15798 
41 658.205568274793 -819.733346935062 17.6115076693665 -802.121839265695
      41    658.20557   -819.73335    17.611508   -802.12184 
42 659.780122878902 -819.737815417763 17.653637790749 -802.084177627014
      4248 666.343019089139 -819.664864045879 17.8292402203104 -801.835623825569
      48    666.34302   -819.66486     17.82924   -801.83562 
49 667.044701376424 -819.638778820389 17.8480150280294 -801.790763792359
      49     667.0447   -819.63878    17.848015   -801.79076 
50 667.704503777533 -819.61083058977 17.8656692619155 -801.745161327855
      50     667.7045   -819.61083    17.865669   -801.74516 
51 668.33334992598 -819.581314868971 17.882495203992 -801.698819664979
      51    668.33335   -819.58131    17.882495   -801.69882 
52 668.928669392612 -819.550224868556 17.8984240776717 -801.651800790884
      52    668.92867   -819.55022    17.898424    -801.6518 
53 669.478062915348 -819.517289622579 17.913124979 
48 666.343019089139 -819.664864045879 17.8292402203104 -801.835623825569
      48    666.34302   -819.66486     17.82924   -801.83562 
49 667.044701376424 -819.638778820389 17.8480150280294 -801.790763792359
      49     667.0447   -819.63878    17.848015   -801.79076 
50 667.704503777533 -819.61083058977 17.8656692619155 -801.745161327855
      50     667.7045   -819.61083    17.865669   -801.74516 
51 668.33334992598 -819.581314868971 17.882495203992 -801.698819664979
      51    668.33335   -819.58131    17.882495   -801.69882 
52 668.928669392612 -819.550224868556 17.8984240776717 -801.651800790884
      52    668.92867   -819.55022    17.898424    -801.6518 
53 669.478062915348 -819.517289622579 17.9131241177587 -801.604165504821
      53    669.47806   -819.51729    17.913124   -801.60417 
54 669.977904813404 -819.482317860421 17.9264983124562 -801.555819547964
      54     669.9779   -819.48232    17.926498   -801.55582 
55 670.424377706813 -819.445445491272 17.9384445207009 -801.507000970571
      55    670.42438   -819.44545    17.938445     -801.507 
56 670.830631175337 -819.406822934918 17.9493145838263 -801.457508351092
      56    670.83063   -819.40682    17.949315   -801.45751 
57 671.248865665046 -819.368055858272 17.9605052213385 -801.407550636934
      57    671.24887   -819.36806    17.960505   -801.40755 
58 671.772019408897 -819.331708349319 17.9745031675975 -801.357205181721
      58    671.77202   -819.33171    17.974503   -801.35721 
59 672.489411763494 -819.300459150748 17.9936983272314 -801.306760823517
      59    672.48941   -819.30046    17.993698   -801.30676 
60 673.430450245671 -819.275102825383 18.0188775527573 -801.256225272625
      60    673.43045    -819.2751    18.018878   -801.25623 
Loop time of 0.927004 on 64 procs for 60 steps with 208 atoms

Performance: 5.592 ns/day, 4.292 hours/ns, 64.725 timesteps/s
89.5% CPU use with 64 MPI tasks x 1 OpenMP threads

MPI task timing breakdown:
Section |  min time  |  avg time  |  max time  |%varavg| %total
---------------------------------------------------------------
Pair    | 0.00045322 | 0.71485    | 0.89286    |  13.0 | 77.11
Neigh   | 3.1672e-05 | 7.0443e-05 | 9.6783e-05 |   0.0 |  0.01
CoTotal wall time: 0:00:02
131    | 0.87506    |  25.7 | 19.56
Output  | 0.0069171  | 0.014878   | 0.015084   |   0.8 |  1.60
Modify  | 0.0046607  | 0.015209   | 0.046025   |  10.7 |  1.64
Other   |            | 0.0006849  |            |       |  0.07

Nlocal:        3.25000 ave           6 max           0 min
Histogram: 1 4 0 14 0 14 23 0 6 2
Nghost:        97.1719 ave         110 max          85 min
Histogram: 1 1 12 11 10 8 10 6 3 2
Neighs:        0.00000 ave           0 max           0 min
Histogram: 64 0 0 0 0 0 0 0 0 0
FullNghs:      51.3750 ave         101 max           0 min
Histogram: 1 4 6 9 12 7 13 8 2 2

Total # of neighbors = 3288
Ave neighs/atom = 15.807692
Neighbor list builds = 6
Dangerous builds = 6
unfix 1
Total wall time: 0:00:02
