LAMMPS (9 Oct 2020)
OMP_NUM_THREADS environment is not set. Defaulting to 1 thread. (../comm.cpp:94)
  using 1 OpenMP thread(s) per MPI task
# Test of GAP potential for Si system

units		metal
boundary	p p p

atom_style	atomic

read_data	lammpsdata
Reading data file ...
  orthogonal box = (0.0000000 0.0000000 0.0000000) to (16.026082 16.100000 16.425367)
  4 by 4 by 4 MPI processor grid
  reading atoms ...
  208 atoms
  read_data CPU = 0.004 seconds
group	 	g_Li id 1
1 atoms in group g_Li
group 		g_P id 2
1 atoms in group g_P
group		g_S id 3
1 atoms in group g_S
group       g_Cl id 4
1 atoms in group g_Cl

pair_style	quip
pair_coeff	* * ../gap/GAP.xml "Potential xml_label=GAP_2022_10_4_-300_12_28_43_159" 3 15 16 17

neighbor	0.3 bin
neigh_modify	delay 10

thermo		1
timestep	0.001
thermo_style	custom step temp pe ke etotal

dump		d1 all custom 20 dump id type x y z fx fy fz

variable poteng equal pe
variable kineng equal ke
variable toteng equal etotal
variable temper equal temp
variable stepnum equal step
fix pots all print 1 "${stepnum} ${temper} ${poteng} ${kineng} ${toteng}" file energy2 title "Step Temp PotEng (eV) KinEng (eV) TotEng (eV)"

velocity all create 1000 825577 dist gaussian

fix 1 all nvt temp 1000 1000 0.1
run 60
Neighbor list info ...
  update every 1 steps, delay 10 steps, check yes
  max neighbors/atom: 2000, page size: 100000
  master list distance cutoff = 4.3
  ghost atom cutoff = 4.3
  binsize = 2.15, bins = 8 8 8
  1 neighbor lists, perpetual/occasional/extra = 1 0 0
  (1) pair quip, perpetual
      attributes: full, newton on
      pair build: full/bin/atomonly
      stencil: full/bin/3d
      bin: standard
0 1000 -829.328220501541 26.756850015 -802.571370486541
Per MPI rank memory allocation (min/avg/max) = 3.208 | 4.193 | 4.209 Mbytes
Step Temp PotEng KinEng TotEng 
       0         1000   -829.32822     26.75685   -802.57137 
1 995.673354802528 -829.212548982385 26.6410826183831 -802.571466364002
       1    995.67335   -829.21255    26.641083   -802.57147 
2 989.281943900061 -829.042919724752 26.4700685954816 -802.572851129271
       2    989.28194   -829.04292    26.470069   -802.57285 
3 980.621530419888 -828.811418504392 26.2383432109247 -802.573075293467
       3    980.62153   -828.81142    26.238343   -802.57308 
4 969.593753211248 -828.516092409609 25.9432746301543 -802.572817779455
       4    969.59375   -828.51609    25.943275   -802.57282 
5 956.343724991574 -828.160546865216 25.588745612386 -802.57180125283
       5    956.34372   -828.16055    25.588746    -802.5718 
6 941.221994721494 -827.754740796876 25.1841357435822 -802.570605053293
       6    941.22199   -827.75474    25.184136   -802.57061 
7 924.70175521805 -827.310913182135 24.7421061729766 -802.568807009158
       7    924.70176   -827.31091    24.742106   -802.56881 
8 907.361669728181 -826.845130890435 24.2781401062769 -802.566990784158
       8    907.36167   -826.84513     24.27814   -802.56699 
9 889.721086077404 -826.370943127677 23.806133655356 -802.564809472321
       9    889.72109   -826.37094    23.806134   -802.56481 
10 872.321271261106 -825.902433332006 23.3405694200276 -802.561863911978
      10    872.32127   -825.90243    23.340569   -802.56186 
11 855.927053765677 -825.458559705628 22.9019118013891 -802.556647904239
      11    855.92705   -825.45856    22.901912   -802.55665 
12 841.429653400488 -825.066310343032 22.5140070342103 -802.552303308822
      12    841.42965   -825.06631    22.514007    -802.5523 
13 829.661353706969 -824.746101854327 22.1991244043792 -802.546977449947
      13    829.66135    -824.7461    22.199124   -802.54698 
14 821.251893179773 -824.516710244854 21.974113730346 -802.542596514509
      14    821.25189   -824.51671    21.974114    -802.5426 
15 816.345263179467 -824.381869443985 21.8428277673487 -802.539041676636
      15    816.34526   -824.38187    21.842828   -802.53904 
16 814.430605497902 -824.325528139293 21.791597558933 -802.53393058036
      16    814.43061   -824.32553    21.791598   -802.53393 
17 814.906424719894 -824.332320198082 21.8043289824901 -802.527991215592
      17    814.90642   -824.33232    21.804329   -802.52799 
18 817.610291125744 -824.395709892858 21.876675930372 -802.519033962486
      18    817.61029   -824.39571    21.876676   -802.51903 
19 822.877710798981 -824.526946478602 22.0176154885349 -802.509330990067
      19    822.87771   -824.52695    22.017615   -802.50933 
20 831.131252103368 -824.737307604973 22.238454255309 -802.498853349664
      20    831.13125   -824.73731    22.238454   -802.49885 
21 842.570121789989 -825.033577335081 22.544522375855 -802.489054959225
      21    842.57012   -825.03358    22.544522   -802.48905 
22 856.914448554176 -825.40809873123 22.9283313756505 -802.479767355579
      22    856.91445    -825.4081    22.928331   -802.47977 
23 873.190315471941 -825.833005249347 23.3638223056333 -802.469182943713
      23    873.19032   -825.83301    23.363822   -802.46918 
24 890.273177734666 -826.279083050287 23.8209058890239 -802.458177161263
      24    890.27318   -826.27908    23.820906   -802.45818 
25 907.085302210745 -826.717967000966 24.2707453820639 -802.447221618902
      25     907.0853   -826.71797    24.270745   -802.44722 
26 922.626334193141 -827.119583759964 24.6865744438951 -802.433009316069
      26    922.62633   -827.11958    24.686574   -802.43301 
27 936.354791328448 -827.472062687904 25.0539047124019 -802.418157975502
      27    936.35479   -827.47206    25.053905   -802.41816 
28 948.033602220691 -827.769397217776 25.3663929037992 -802.403004313977
      28     948.0336    -827.7694    25.366393     -802.403 
29 957.443092214763 -828.004358685036 25.6181612162882 -802.386197468747
      29    957.44309   -828.00436    25.618161    -802.3862 
30 965.031896040129 -828.190340959265 25.8212137020368 -802.369127257228
      30     965.0319   -828.19034    25.821214   -802.36913 
31 971.305878255606 -828.341980223468 25.9890857031731 -802.352894520295
      31    971.30588   -828.34198    25.989086   -802.35289 
32 976.374575557399 -828.459497669729 26.1247080766486 -802.334789593081
      32    976.37458    -828.4595    26.124708   -802.33479 
33 980.540852340646 -828.552652203751 26.2361845196589 -802.316467684092
      33    980.54085   -828.55265    26.236185   -802.31647 
34 984.164713357493 -828.631611249461 26.3331476253619 -802.298463624099
      34    984.16471   -828.63161    26.333148   -802.29846 
35 987.489895680813 -828.70246878325 26.4221190300595 -802.280349753191
      35     987.4899   -828.70247    26.422119   -802.28035 
36 990.525179681733 -828.765802345202 26.5033336688251 -802.262468676377
      36    990.52518    -828.7658    26.503334   -802.26247 
37 993.15323846791 -828.817754435298 26.5736522435974 -802.244102191701
      37    993.15324   -828.81775    26.573652    -802.2441 
38 995.306176357557 -828.856547463833 26.6312580798023 -802.225289384031
      38    995.30618   -828.85655    26.631258   -802.22529 
39 996.937544131961 -828.881884554251 26.6749083426613 -802.206976211589
      39    996.93754   -828.88188    26.674908   -802.20698 
40 997.846846509442 -828.887593309908 26.6992384099939 -802.188354899914
      40    997.84685   -828.88759    26.699238   -802.18835 
41 997.742801147301 -828.86624372903 26.6964544838443 -802.169789245186
      41     997.7428   -828.86624    26.696454   -802.16979 
42 996.541512431788 -828.814855302665 26.6643117818586 -802.150543520806
      42  48 993.679332430797 -828.617623969229 26.5877288608562 -802.029895108373
      48    993.67933   -828.61762    26.587729    -802.0299 
49 998.989468903562 -828.740969281519 26.7298113860171 -802.011157895501
      49    998.98947   -828.74097    26.729811   -802.01116 
50 1006.07016739902 -828.905466403696 26.9192685736614 -801.986197830034
      50    1006.0702   -828.90547    26.919269    -801.9862 
51 1014.49136590316 -829.111692276782 27.1445933189834 -801.967098957799
      51    1014.4914   -829.11169    27.144593    -801.9671 
52 1024.05890218614 -829.347811381637 27.4005904523201 -801.947220929317
      52    1024.0589   -829.34781     27.40059   -801.94722 
53 1034.54541102886 -829.6094617645  -802.04973 
48 993.679332430797 -828.617623969229 26.5877288608562 -802.029895108373
      48    993.67933   -828.61762    26.587729    -802.0299 
49 998.989468903562 -828.740969281519 26.7298113860171 -802.011157895501
      49    998.98947   -828.74097    26.729811   -802.01116 
50 1006.07016739902 -828.905466403696 26.9192685736614 -801.986197830034
      50    1006.0702   -828.90547    26.919269    -801.9862 
51 1014.49136590316 -829.111692276782 27.1445933189834 -801.967098957799
      51    1014.4914   -829.11169    27.144593    -801.9671 
52 1024.05890218614 -829.347811381637 27.4005904523201 -801.947220929317
      52    1024.0589   -829.34781     27.40059   -801.94722 
53 1034.54541102886 -829.60946176455 27.6811763966057 -801.928285367944
      53    1034.5454   -829.60946    27.681176   -801.92829 
54 1045.61258771963 -829.885741064061 27.9772991834101 -801.908441880651
      54    1045.6126   -829.88574    27.977299   -801.90844 
55 1057.03275066876 -830.170957901518 28.2828667705868 -801.888091130932
      55    1057.0328   -830.17096    28.282867   -801.88809 
56 1068.9422479263 -830.468397615141 28.6015274024609 -801.86687021268
      56    1068.9422    -830.4684    28.601527   -801.86687 
57 1081.66647636113 -830.787739122113 28.9419876742484 -801.845751447864
      57    1081.6665   -830.78774    28.941988   -801.84575 
58 1095.4274960399 -831.137031029563 29.3101892138467 -801.826841815717
      58    1095.4275   -831.13703    29.310189   -801.82684 
59 1110.04490765188 -831.508806419342 29.7013051039559 -801.807501315386
      59    1110.0449   -831.50881    29.701305    -801.8075 
60 1125.07651394965 -831.893264118541 30.1035035391498 -801.789760579391
      60    1125.0765   -831.89326    30.103504   -801.78976 
Loop time of 0.945213 on 64 procs for 60 steps with 208 atoms

Performance: 5.484 ns/day, 4.376 hours/ns, 63.478 timesteps/s
90.1% CPU use with 64 MPI tasks x 1 OpenMP threads

MPI task timing breakdown:
Section |  min time  |  avg time  |  max time  |%varavg| %total
---------------------------------------------------------------
Pair    | 0.00043539 | 0.71112    | 0.91557    |  13.7 | 75.23
Neigh   | 3.4494e-05 | 7.4337e-05 | 0.00010394 |   0.0 |  0.01
CTotal wall time: 0:00:01
0254    | 0.88284    |  25.4 | 21.43
Output  | 0.0068439  | 0.01484    | 0.015031   |   0.8 |  1.57
Modify  | 0.0050977  | 0.015946   | 0.061701   |  13.2 |  1.69
Other   |            | 0.0006918  |            |       |  0.07

Nlocal:        3.25000 ave           6 max           0 min
Histogram: 1 5 0 13 0 18 14 0 11 2
Nghost:        96.8438 ave         108 max          88 min
Histogram: 3 4 11 11 9 7 4 10 3 2
Neighs:        0.00000 ave           0 max           0 min
Histogram: 64 0 0 0 0 0 0 0 0 0
FullNghs:      51.3125 ave          92 max           0 min
Histogram: 1 5 3 9 6 14 8 4 7 7

Total # of neighbors = 3284
Ave neighs/atom = 15.788462
Neighbor list builds = 6
Dangerous builds = 6
unfix 1
Total wall time: 0:00:01
